--------------------------------------------------------------------------
[[53696,1],5]: A high-performance Open MPI point-to-point messaging module
was unable to find any relevant network interfaces:

Module: OpenFabrics (openib)
  Host: mrcd45

Another transport will be used instead, although this may result in
lower performance.
--------------------------------------------------------------------------

     Program PWSCF v.5.4.0 starts on 13Feb2017 at  9:58:41 

     This program is part of the open-source Quantum ESPRESSO suite
     for quantum simulation of materials; please cite
         "P. Giannozzi et al., J. Phys.:Condens. Matter 21 395502 (2009);
          URL http://www.quantum-espresso.org", 
     in publications or presentations arising from this work. More details at
     http://www.quantum-espresso.org/quote

     Parallel version (MPI), running on    20 processors
     R & G space division:  proc/nbgrp/npool/nimage =      20
     Waiting for input...
     Reading input from standard input
     Message from routine read_cards :
     DEPRECATED: no units specified in CELL_PARAMETERS card

     Current dimensions of program PWSCF are:
     Max number of different atomic species (ntypx) = 10
     Max number of k-points (npk) =  40000
     Max angular momentum in pseudopotentials (lmaxx) =  3
     Message from routine iosys:
     xdm is obsolete, use "vdw_corr='xdm'" instead
               file n.UPF: wavefunction(s)  2P renormalized
               file ca.UPF: wavefunction(s)  3P renormalized

     Subspace diagonalization in iterative solution of the eigenvalue problem:
     a serial algorithm will be used

     Found symmetry operation: I + ( -0.3333  0.3333  0.3333)
     This is a supercell, fractional translations are disabled

     Parallelization info
     --------------------
     sticks:   dense  smooth     PW     G-vecs:    dense   smooth      PW
     Min          89      36     10                22757     5746     930
     Max          90      37     11                22798     5793     951
     Sum        1789     721    211               455505   115273   18809


     Title: 
     crystal-5                                                                  


     bravais-lattice index     =            0
     lattice parameter (alat)  =       1.0000  a.u.
     unit-cell volume          =    1835.3846 (a.u.)^3
     number of atoms/cell      =            9
     number of atomic types    =            2
     number of electrons       =        75.00
     number of Kohn-Sham states=           46
     kinetic-energy cutoff     =      60.0000  Ry
     charge density cutoff     =     600.0000  Ry
     convergence threshold     =      1.0E-08
     mixing beta               =       0.7000
     number of iterations used =            8  plain     mixing
     Exchange-correlation      =  SLA  PW   B86B PBC ( 1  4 22  4 0 0)
     nstep                     =           50


     celldm(1)=   1.000000  celldm(2)=   0.000000  celldm(3)=   0.000000
     celldm(4)=   0.000000  celldm(5)=   0.000000  celldm(6)=   0.000000

     crystal axes: (cart. coord. in units of alat)
               a(1) = (   6.591409  -0.000000   0.000000 )  
               a(2) = (  -3.295705   5.708328   0.000000 )  
               a(3) = (  -0.000000  -0.000000  48.779787 )  

     reciprocal axes: (cart. coord. in units 2 pi/alat)
               b(1) = (  0.151713  0.087591  0.000000 )  
               b(2) = (  0.000000  0.175183  0.000000 )  
               b(3) = ( -0.000000 -0.000000  0.020500 )  


     PseudoPot. # 1 for  N read from file:
     ./n.UPF
     MD5 check sum: af778723f421ce17622347cbf03a6d58
     Pseudo is Projector augmented-wave + core cor, Zval =  5.0
     Generated using "atomic" code by A. Dal Corso  v.5.0.2 svn rev. 10467M
     Shape of augmentation charge: PSQ
     Using radial grid of 1085 points,  4 beta functions with: 
                l(1) =   0
                l(2) =   0
                l(3) =   1
                l(4) =   1
     Q(r) pseudized with 0 coefficients 


     PseudoPot. # 2 for Ca read from file:
     ./ca.UPF
     MD5 check sum: f6ecff6f654125cbfc99ef4dee887d8e
     Pseudo is Projector augmented-wave + core cor, Zval = 10.0
     Generated using "atomic" code by A. Dal Corso  v.5.3.0 svn rev. 11974
     Shape of augmentation charge: BESSEL
     Using radial grid of 1169 points,  6 beta functions with: 
                l(1) =   0
                l(2) =   0
                l(3) =   1
                l(4) =   1
                l(5) =   2
                l(6) =   2
     Q(r) pseudized with 0 coefficients 


     atomic species   valence    mass     pseudopotential
        n              5.00    14.00670      N( 1.00)
        ca            10.00    40.07800     Ca( 1.00)

     12 Sym. Ops., with inversion, found



   Cartesian axes

     site n.     atom                  positions (alat units)
         1           ca  tau(   1) = (  -3.2957010   5.7083330  13.8912550  )
         2           ca  tau(   2) = (   3.2957010   1.9027840  30.1510930  )
         3           ca  tau(   3) = (  -0.0000000   3.8055490  46.4109500  )
         4           ca  tau(   4) = (  -3.2957010   5.7083330  34.8885420  )
         5           ca  tau(   5) = (   3.2957010   1.9027840   2.3686010  )
         6           ca  tau(   6) = (  -0.0000000   3.8055490  18.6284390  )
         7           n   tau(   7) = (   0.0000000   0.0000000   0.0000000  )
         8           n   tau(   8) = (   3.2957010   1.9027840  16.2598380  )
         9           n   tau(   9) = (  -0.0000000   3.8055490  32.5196950  )

     number of k points=    20  Marzari-Vanderbilt smearing, width (Ry)=  0.0100
                       cart. coord. in units 2pi/alat
        k(    1) = (   0.0189641   0.0328467   0.0025625), wk =   0.1250000
        k(    2) = (   0.0189641   0.0328467   0.0076876), wk =   0.1250000
        k(    3) = (   0.0189641   0.0766424   0.0025625), wk =   0.1250000
        k(    4) = (   0.0189641   0.0766424   0.0076876), wk =   0.1250000
        k(    5) = (   0.0189641  -0.0547446   0.0025625), wk =   0.1250000
        k(    6) = (   0.0189641  -0.0547446   0.0076876), wk =   0.1250000
        k(    7) = (   0.0189641  -0.0109489   0.0025625), wk =   0.0625000
        k(    8) = (   0.0189641  -0.0109489   0.0076876), wk =   0.0625000
        k(    9) = (   0.0568922   0.0985402   0.0025625), wk =   0.1250000
        k(   10) = (   0.0568922   0.0985402   0.0076876), wk =   0.1250000
        k(   11) = (   0.0568922  -0.0328467   0.0025625), wk =   0.0625000
        k(   12) = (   0.0568922  -0.0328467   0.0076876), wk =   0.0625000
        k(   13) = (  -0.0189641   0.0766424  -0.0025625), wk =   0.1250000
        k(   14) = (  -0.0189641   0.0766424  -0.0076876), wk =   0.1250000
        k(   15) = (  -0.0189641  -0.0547446  -0.0025625), wk =   0.1250000
        k(   16) = (  -0.0189641  -0.0547446  -0.0076876), wk =   0.1250000
        k(   17) = (  -0.0189641  -0.0109489  -0.0025625), wk =   0.0625000
        k(   18) = (  -0.0189641  -0.0109489  -0.0076876), wk =   0.0625000
        k(   19) = (  -0.0568922  -0.0328468  -0.0025625), wk =   0.0625000
        k(   20) = (  -0.0568922  -0.0328468  -0.0076876), wk =   0.0625000

     Dense  grid:   455505 G-vectors     FFT dimensions: (  54,  54, 384)

     Smooth grid:   115273 G-vectors     FFT dimensions: (  36,  36, 243)

     Largest allocated arrays     est. size (Mb)     dimensions
        Kohn-Sham Wavefunctions         0.56 Mb     (     791,   46)
        NL pseudopotentials             1.59 Mb     (     791,  132)
        Each V/rho on FFT grid          0.89 Mb     (   58320)
        Each G-vector array             0.17 Mb     (   22757)
        G-vector shells                 0.17 Mb     (   22757)
     Largest temporary arrays     est. size (Mb)     dimensions
        Auxiliary wavefunctions         2.22 Mb     (     791,  184)
        Each subspace H/S matrix        0.52 Mb     (     184,  184)
        Each <psi_i|beta_j> matrix      0.09 Mb     (     132,   46)
        Arrays for rho mixing           7.12 Mb     (   58320,    8)

     Check: negative/imaginary core charge=   -0.000003    0.000000

     Initial potential from superposition of free atoms

     starting charge   74.97184, renormalised to   75.00000
     Starting wfc are   42 randomized atomic wfcs +    4 random wfc
     Checking if some PAW data can be deallocated... 

     total cpu time spent up to now is        6.3 secs

     Self-consistent Calculation

     iteration #  1     ecut=    60.00 Ry     beta=0.70
     Davidson diagonalization with overlap
     ethr =  1.00E-02,  avg # of iterations =  6.2

     total cpu time spent up to now is       16.1 secs

     total energy              =    -885.62895978 Ry
     Harris-Foulkes estimate   =    -890.26337749 Ry
     estimated scf accuracy    <       5.68098950 Ry

     iteration #  2     ecut=    60.00 Ry     beta=0.70
     Davidson diagonalization with overlap
     ethr =  7.57E-03,  avg # of iterations =  5.5

     total cpu time spent up to now is       28.2 secs

     total energy              =    -879.92486998 Ry
     Harris-Foulkes estimate   =    -897.31726709 Ry
     estimated scf accuracy    <      67.88968518 Ry

     iteration #  3     ecut=    60.00 Ry     beta=0.70
     Davidson diagonalization with overlap
     ethr =  7.57E-03,  avg # of iterations =  6.1

     total cpu time spent up to now is       40.6 secs

     total energy              =    -886.82000779 Ry
     Harris-Foulkes estimate   =    -890.38907978 Ry
     estimated scf accuracy    <      75.17666345 Ry

     iteration #  4     ecut=    60.00 Ry     beta=0.70
     Davidson diagonalization with overlap
     ethr =  7.57E-03,  avg # of iterations =  5.9

     total cpu time spent up to now is       49.3 secs

     total energy              =    -888.87051607 Ry
     Harris-Foulkes estimate   =    -889.29549483 Ry
     estimated scf accuracy    <       3.08512566 Ry

     iteration #  5     ecut=    60.00 Ry     beta=0.70
     Davidson diagonalization with overlap
     ethr =  4.11E-03,  avg # of iterations =  5.3

     total cpu time spent up to now is       57.5 secs

     total energy              =    -889.03554306 Ry
     Harris-Foulkes estimate   =    -889.17342979 Ry
     estimated scf accuracy    <       2.91262685 Ry

     iteration #  6     ecut=    60.00 Ry     beta=0.70
     Davidson diagonalization with overlap
     ethr =  3.88E-03,  avg # of iterations =  1.0

     total cpu time spent up to now is       63.9 secs

     total energy              =    -889.05724022 Ry
     Harris-Foulkes estimate   =    -889.11094625 Ry
     estimated scf accuracy    <       0.57887770 Ry

     iteration #  7     ecut=    60.00 Ry     beta=0.70
     Davidson diagonalization with overlap
     ethr =  7.72E-04,  avg # of iterations =  3.0

     total cpu time spent up to now is       70.9 secs

     total energy              =    -888.97972197 Ry
     Harris-Foulkes estimate   =    -889.06525704 Ry
     estimated scf accuracy    <       0.39836325 Ry

     iteration #  8     ecut=    60.00 Ry     beta=0.70
     Davidson diagonalization with overlap
     ethr =  5.31E-04,  avg # of iterations =  2.6

     total cpu time spent up to now is       77.9 secs

     total energy              =    -888.98252623 Ry
     Harris-Foulkes estimate   =    -889.00598067 Ry
     estimated scf accuracy    <       0.14238141 Ry

     iteration #  9     ecut=    60.00 Ry     beta=0.70
     Davidson diagonalization with overlap
     ethr =  1.90E-04,  avg # of iterations =  3.5

     total cpu time spent up to now is       85.8 secs

     total energy              =    -888.99315113 Ry
     Harris-Foulkes estimate   =    -889.00190542 Ry
     estimated scf accuracy    <       0.19801645 Ry

     iteration # 10     ecut=    60.00 Ry     beta=0.70
     Davidson diagonalization with overlap
     ethr =  1.90E-04,  avg # of iterations =  1.4

     total cpu time spent up to now is       92.3 secs

     total energy              =    -888.99553583 Ry
     Harris-Foulkes estimate   =    -888.99819429 Ry
     estimated scf accuracy    <       0.01325353 Ry

     iteration # 11     ecut=    60.00 Ry     beta=0.70
     Davidson diagonalization with overlap
     ethr =  1.77E-05,  avg # of iterations =  7.7

     total cpu time spent up to now is      101.4 secs

     total energy              =    -888.99469924 Ry
     Harris-Foulkes estimate   =    -888.99632372 Ry
     estimated scf accuracy    <       0.00658145 Ry

     iteration # 12     ecut=    60.00 Ry     beta=0.70
     Davidson diagonalization with overlap
     ethr =  8.78E-06,  avg # of iterations =  3.9

     total cpu time spent up to now is      109.4 secs

     total energy              =    -888.99529567 Ry
     Harris-Foulkes estimate   =    -888.99564262 Ry
     estimated scf accuracy    <       0.01032784 Ry

     iteration # 13     ecut=    60.00 Ry     beta=0.70
     Davidson diagonalization with overlap
     ethr =  8.78E-06,  avg # of iterations =  1.0

     total cpu time spent up to now is      115.9 secs

     total energy              =    -888.99545663 Ry
     Harris-Foulkes estimate   =    -888.99551571 Ry
     estimated scf accuracy    <       0.00029974 Ry

     iteration # 14     ecut=    60.00 Ry     beta=0.70
     Davidson diagonalization with overlap
     ethr =  4.00E-07,  avg # of iterations =  7.8

     total cpu time spent up to now is      125.2 secs

     total energy              =    -888.99545630 Ry
     Harris-Foulkes estimate   =    -888.99551406 Ry
     estimated scf accuracy    <       0.00023167 Ry

     iteration # 15     ecut=    60.00 Ry     beta=0.70
     Davidson diagonalization with overlap
     ethr =  3.09E-07,  avg # of iterations =  3.2

     total cpu time spent up to now is      132.8 secs

     total energy              =    -888.99547708 Ry
     Harris-Foulkes estimate   =    -888.99548420 Ry
     estimated scf accuracy    <       0.00020100 Ry

     iteration # 16     ecut=    60.00 Ry     beta=0.70
     Davidson diagonalization with overlap
     ethr =  2.68E-07,  avg # of iterations =  1.0

     total cpu time spent up to now is      139.3 secs

     total energy              =    -888.99548119 Ry
     Harris-Foulkes estimate   =    -888.99548210 Ry
     estimated scf accuracy    <       0.00000536 Ry

     iteration # 17     ecut=    60.00 Ry     beta=0.70
     Davidson diagonalization with overlap
     ethr =  7.15E-09,  avg # of iterations =  3.6

     total cpu time spent up to now is      147.3 secs

     total energy              =    -888.99548217 Ry
     Harris-Foulkes estimate   =    -888.99548258 Ry
     estimated scf accuracy    <       0.00000188 Ry

     iteration # 18     ecut=    60.00 Ry     beta=0.70
     Davidson diagonalization with overlap
     ethr =  2.50E-09,  avg # of iterations =  3.0

     total cpu time spent up to now is      154.7 secs

     total energy              =    -888.99548225 Ry
     Harris-Foulkes estimate   =    -888.99548244 Ry
     estimated scf accuracy    <       0.00000133 Ry

     iteration # 19     ecut=    60.00 Ry     beta=0.70
     Davidson diagonalization with overlap
     ethr =  1.77E-09,  avg # of iterations =  1.3

     total cpu time spent up to now is      161.2 secs

     total energy              =    -888.99548235 Ry
     Harris-Foulkes estimate   =    -888.99548240 Ry
     estimated scf accuracy    <       0.00000034 Ry

     iteration # 20     ecut=    60.00 Ry     beta=0.70
     Davidson diagonalization with overlap
     ethr =  4.56E-10,  avg # of iterations =  2.8

     total cpu time spent up to now is      168.5 secs

     total energy              =    -888.99548238 Ry
     Harris-Foulkes estimate   =    -888.99548239 Ry
     estimated scf accuracy    <       0.00000007 Ry

     iteration # 21     ecut=    60.00 Ry     beta=0.70
     Davidson diagonalization with overlap
     ethr =  9.73E-11,  avg # of iterations =  3.0

     total cpu time spent up to now is      176.0 secs

     End of self-consistent calculation

          k = 0.0190 0.0328 0.0026 ( 14352 PWs)   bands (ev):

   -36.0757 -36.0735 -36.0714 -36.0072 -36.0050 -36.0030 -17.4454 -17.4430
   -17.4409 -17.1538 -17.1515 -17.1493 -17.0896 -17.0873 -17.0852 -16.9856
   -16.9834 -16.9813 -16.9453 -16.9431 -16.9410 -16.9345 -16.9322 -16.9302
    -8.0218  -8.0174  -8.0138   1.4788   1.4858   1.5040   1.8829   1.9005
     1.9078   2.6407   2.6452   2.6490   4.2006   4.3446   4.4187   5.1534
     5.2724   5.5502   6.4839   6.5016   6.5848   7.4824

          k = 0.0190 0.0328 0.0077 ( 14360 PWs)   bands (ev):

   -36.0757 -36.0735 -36.0714 -36.0072 -36.0050 -36.0030 -17.4454 -17.4430
   -17.4409 -17.1538 -17.1515 -17.1493 -17.0896 -17.0873 -17.0852 -16.9856
   -16.9834 -16.9813 -16.9453 -16.9431 -16.9410 -16.9345 -16.9322 -16.9302
    -8.0218  -8.0174  -8.0138   1.4755   1.4928   1.5003   1.8864   1.8941
     1.9107   2.6407   2.6453   2.6489   4.2266   4.2765   4.4731   5.0740
     5.3950   5.4945   6.4755   6.5282   6.5604   7.5492

          k = 0.0190 0.0766 0.0026 ( 14435 PWs)   bands (ev):

   -36.0273 -36.0251 -36.0229 -35.9993 -35.9971 -35.9951 -17.4979 -17.4955
   -17.4933 -17.3580 -17.3556 -17.3535 -17.1625 -17.1602 -17.1581 -17.0851
   -17.0828 -17.0808 -16.9882 -16.9860 -16.9839 -16.9681 -16.9659 -16.9638
    -7.8450  -7.8406  -7.8371   1.4338   1.4381   1.4423   2.3579   2.3615
     2.3647   2.5205   2.5248   2.5284   5.5757   5.6142   5.6556   5.8132
     5.9848   5.9950   6.2376   6.2716   6.3540   7.2662

          k = 0.0190 0.0766 0.0077 ( 14429 PWs)   bands (ev):

   -36.0273 -36.0251 -36.0229 -35.9993 -35.9971 -35.9951 -17.4979 -17.4955
   -17.4933 -17.3580 -17.3556 -17.3535 -17.1625 -17.1602 -17.1581 -17.0851
   -17.0828 -17.0808 -16.9882 -16.9860 -16.9839 -16.9681 -16.9659 -16.9638
    -7.8450  -7.8406  -7.8371   1.4338   1.4382   1.4422   2.3579   2.3616
     2.3647   2.5205   2.5248   2.5284   5.5844   5.5962   5.6677   5.8166
     5.9369   6.0485   6.2169   6.2765   6.3582   7.2432

          k = 0.0190-0.0547 0.0026 ( 14407 PWs)   bands (ev):

   -36.0495 -36.0472 -36.0451 -36.0005 -35.9983 -35.9963 -17.4529 -17.4505
   -17.4484 -17.2826 -17.2802 -17.2781 -17.1521 -17.1498 -17.1477 -17.0426
   -17.0404 -17.0383 -16.9792 -16.9770 -16.9749 -16.9441 -16.9419 -16.9398
    -7.9110  -7.9066  -7.9030   1.5740   1.5789   1.5869   2.0370   2.0447
     2.0491   2.5735   2.5780   2.5817   4.9159   4.9760   5.0929   5.5452
     5.6902   5.7650   6.0969   6.2221   6.3625   7.3194

          k = 0.0190-0.0547 0.0077 ( 14417 PWs)   bands (ev):

   -36.0495 -36.0472 -36.0451 -36.0005 -35.9983 -35.9963 -17.4529 -17.4505
   -17.4484 -17.2826 -17.2802 -17.2781 -17.1521 -17.1498 -17.1477 -17.0426
   -17.0404 -17.0383 -16.9792 -16.9770 -16.9749 -16.9441 -16.9419 -16.9399
    -7.9110  -7.9066  -7.9030   1.5730   1.5809   1.5859   2.0370   2.0447
     2.0490   2.5735   2.5780   2.5816   4.9021   5.0262   5.0508   5.5629
     5.7091   5.7294   6.0811   6.2876   6.3174   7.3159

          k = 0.0190-0.0109 0.0026 ( 14324 PWs)   bands (ev):

   -36.0929 -36.0906 -36.0885 -36.0133 -36.0111 -36.0091 -17.4630 -17.4606
   -17.4585 -17.0603 -17.0579 -17.0558 -16.9974 -16.9951 -16.9930 -16.9646
   -16.9624 -16.9603 -16.9351 -16.9329 -16.9308 -16.9162 -16.9140 -16.9119
    -8.1126  -8.1082  -8.1045   1.0846   1.0947   1.1166   2.2293   2.2579
     2.2649   2.6641   2.6685   2.6721   3.6978   3.8755   4.0596   4.6939
     4.9843   5.4546   7.0685   7.0918   7.1256   7.1870

          k = 0.0190-0.0109 0.0077 ( 14329 PWs)   bands (ev):

   -36.0929 -36.0906 -36.0885 -36.0133 -36.0111 -36.0091 -17.4630 -17.4606
   -17.4585 -17.0603 -17.0579 -17.0558 -16.9974 -16.9951 -16.9930 -16.9646
   -16.9624 -16.9603 -16.9351 -16.9329 -16.9308 -16.9162 -16.9140 -16.9119
    -8.1126  -8.1082  -8.1045   1.0805   1.1039   1.1115   2.2341   2.2477
     2.2704   2.6641   2.6685   2.6721   3.7426   3.7785   4.1664   4.5464
     5.1985   5.3229   7.0618   7.0857   7.1230   7.3067

          k = 0.0569 0.0985 0.0026 ( 14401 PWs)   bands (ev):

   -36.0147 -36.0125 -36.0103 -36.0022 -36.0000 -35.9980 -17.4475 -17.4451
   -17.4429 -17.3296 -17.3272 -17.3251 -17.2723 -17.2699 -17.2678 -17.1150
   -17.1128 -17.1107 -17.0057 -17.0035 -17.0014 -16.9817 -16.9795 -16.9774
    -7.8138  -7.8095  -7.8059   1.7247   1.7290   1.7327   2.1675   2.1718
     2.1754   2.4262   2.4297   2.4327   5.9676   6.0136   6.0404   6.1970
     6.2364   6.3506   6.3679   6.3813   6.3843   7.2710

          k = 0.0569 0.0985 0.0077 ( 14395 PWs)   bands (ev):

   -36.0147 -36.0125 -36.0103 -36.0022 -36.0000 -35.9980 -17.4475 -17.4451
   -17.4429 -17.3296 -17.3272 -17.3251 -17.2723 -17.2699 -17.2678 -17.1150
   -17.1128 -17.1107 -17.0057 -17.0035 -17.0014 -16.9817 -16.9795 -16.9774
    -7.8138  -7.8095  -7.8059   1.7247   1.7290   1.7327   2.1675   2.1718
     2.1754   2.4262   2.4297   2.4327   5.9756   5.9913   6.0637   6.1672
     6.2776   6.3172   6.3594   6.3927   6.3949   7.2922

          k = 0.0569-0.0328 0.0026 ( 14428 PWs)   bands (ev):

   -36.0409 -36.0386 -36.0365 -35.9995 -35.9972 -35.9952 -17.4882 -17.4857
   -17.4836 -17.3430 -17.3406 -17.3385 -17.0984 -17.0962 -17.0941 -17.0905
   -17.0882 -17.0860 -16.9671 -16.9648 -16.9628 -16.9490 -16.9468 -16.9447
    -7.8853  -7.8810  -7.8774   1.3715   1.3759   1.3823   2.2298   2.2335
     2.2373   2.6807   2.6851   2.6887   5.1279   5.2423   5.3248   5.6207
     5.6220   5.7967   6.0321   6.0485   6.1298   7.4886

          k = 0.0569-0.0328 0.0077 ( 14438 PWs)   bands (ev):

   -36.0409 -36.0386 -36.0365 -35.9995 -35.9972 -35.9952 -17.4882 -17.4857
   -17.4836 -17.3430 -17.3406 -17.3385 -17.0984 -17.0962 -17.0941 -17.0905
   -17.0882 -17.0860 -16.9671 -16.9648 -16.9628 -16.9490 -16.9468 -16.9447
    -7.8853  -7.8810  -7.8774   1.3711   1.3766   1.3820   2.2298   2.2336
     2.2373   2.6807   2.6851   2.6887   5.1237   5.2568   5.3179   5.5598
     5.7100   5.7670   6.0058   6.0878   6.1160   7.4852

          k =-0.0190 0.0766-0.0026 ( 14435 PWs)   bands (ev):

   -36.0273 -36.0251 -36.0229 -35.9993 -35.9971 -35.9951 -17.4979 -17.4955
   -17.4933 -17.3580 -17.3556 -17.3535 -17.1625 -17.1602 -17.1581 -17.0851
   -17.0828 -17.0808 -16.9882 -16.9860 -16.9839 -16.9681 -16.9659 -16.9638
    -7.8450  -7.8406  -7.8371   1.4337   1.4383   1.4422   2.3579   2.3615
     2.3647   2.5205   2.5248   2.5284   5.5756   5.6281   5.6356   5.8411
     5.9177   6.0541   6.1960   6.3168   6.3368   7.3050

          k =-0.0190 0.0766-0.0077 ( 14429 PWs)   bands (ev):

   -36.0273 -36.0251 -36.0229 -35.9993 -35.9971 -35.9951 -17.4979 -17.4955
   -17.4933 -17.3580 -17.3556 -17.3535 -17.1625 -17.1602 -17.1581 -17.0851
   -17.0828 -17.0808 -16.9882 -16.9860 -16.9839 -16.9681 -16.9659 -16.9638
    -7.8450  -7.8406  -7.8371   1.4337   1.4383   1.4422   2.3579   2.3616
     2.3646   2.5205   2.5248   2.5284   5.5828   5.6024   5.6564   5.8570
     5.8846   6.0871   6.1751   6.3101   6.3463   7.2567

          k =-0.0190-0.0547-0.0026 ( 14407 PWs)   bands (ev):

   -36.0495 -36.0472 -36.0451 -36.0005 -35.9983 -35.9963 -17.4529 -17.4505
   -17.4484 -17.2826 -17.2802 -17.2781 -17.1521 -17.1498 -17.1477 -17.0426
   -17.0404 -17.0383 -16.9792 -16.9770 -16.9749 -16.9441 -16.9419 -16.9398
    -7.9110  -7.9066  -7.9030   1.5739   1.5791   1.5868   2.0381   2.0426
     2.0501   2.5735   2.5779   2.5817   4.9346   4.9490   5.1019   5.5680
     5.6465   5.7782   6.1580   6.1608   6.3703   7.3032

          k =-0.0190-0.0547-0.0077 ( 14417 PWs)   bands (ev):

   -36.0495 -36.0472 -36.0451 -36.0005 -35.9983 -35.9963 -17.4529 -17.4505
   -17.4484 -17.2826 -17.2802 -17.2781 -17.1521 -17.1498 -17.1477 -17.0426
   -17.0404 -17.0383 -16.9792 -16.9770 -16.9749 -16.9441 -16.9419 -16.9398
    -7.9110  -7.9066  -7.9030   1.5729   1.5811   1.5858   2.0381   2.0426
     2.0500   2.5735   2.5779   2.5817   4.9088   4.9970   5.0740   5.6017
     5.6313   5.7610   6.1075   6.2436   6.3419   7.3039

          k =-0.0190-0.0109-0.0026 ( 14324 PWs)   bands (ev):

   -36.0929 -36.0906 -36.0885 -36.0133 -36.0111 -36.0091 -17.4630 -17.4606
   -17.4585 -17.0603 -17.0579 -17.0558 -16.9974 -16.9951 -16.9930 -16.9646
   -16.9624 -16.9603 -16.9351 -16.9329 -16.9308 -16.9162 -16.9140 -16.9119
    -8.1126  -8.1082  -8.1045   1.0858   1.0930   1.1172   2.2303   2.2544
     2.2675   2.6641   2.6685   2.6721   3.6886   3.9303   4.0002   4.7687
     4.9051   5.4757   7.0714   7.0750   7.0992   7.2299

          k =-0.0190-0.0109-0.0077 ( 14329 PWs)   bands (ev):

   -36.0929 -36.0906 -36.0885 -36.0133 -36.0111 -36.0091 -17.4630 -17.4606
   -17.4585 -17.0603 -17.0579 -17.0558 -16.9974 -16.9951 -16.9930 -16.9646
   -16.9624 -16.9603 -16.9351 -16.9329 -16.9308 -16.9162 -16.9140 -16.9119
    -8.1126  -8.1082  -8.1045   1.0810   1.1021   1.1127   2.2365   2.2442
     2.2714   2.6641   2.6685   2.6721   3.7156   3.8213   4.1296   4.5884
     5.1257   5.3775   7.0575   7.0802   7.1090   7.3499

          k =-0.0569-0.0328-0.0026 ( 14428 PWs)   bands (ev):

   -36.0409 -36.0386 -36.0365 -35.9995 -35.9972 -35.9952 -17.4882 -17.4857
   -17.4836 -17.3430 -17.3406 -17.3385 -17.0984 -17.0962 -17.0941 -17.0905
   -17.0882 -17.0860 -16.9671 -16.9648 -16.9628 -16.9490 -16.9468 -16.9447
    -7.8853  -7.8810  -7.8774   1.3711   1.3767   1.3819   2.2297   2.2338
     2.2372   2.6807   2.6851   2.6887   5.1535   5.1822   5.3917   5.5297
     5.6778   5.8065   6.0101   6.0628   6.1305   7.5203

          k =-0.0569-0.0328-0.0077 ( 14438 PWs)   bands (ev):

   -36.0409 -36.0386 -36.0365 -35.9995 -35.9972 -35.9952 -17.4882 -17.4857
   -17.4836 -17.3430 -17.3406 -17.3385 -17.0984 -17.0962 -17.0941 -17.0905
   -17.0882 -17.0860 -16.9671 -16.9648 -16.9628 -16.9490 -16.9468 -16.9447
    -7.8853  -7.8810  -7.8774   1.3708   1.3775   1.3815   2.2296   2.2338
     2.2371   2.6807   2.6851   2.6887   5.1420   5.1979   5.3960   5.5018
     5.7264   5.7781   5.9939   6.0923   6.1164   7.5099

     the Fermi energy is     5.0556 ev

* XDM dispersion
  a1 =     0.651200
  a2 (ang) =     1.463300
  a2 (bohr) =     2.765236

+ Volumes and moments
# All results in atomic units (Hartree,bohr)
# i        V             Vfree           M1             M2             M3
  1   1.949051E+02   2.097472E+02   1.087161E+01   3.494535E+02   1.703934E+04
  2   1.948994E+02   2.097472E+02   1.087153E+01   3.494399E+02   1.703845E+04
  3   1.948999E+02   2.097472E+02   1.087161E+01   3.494411E+02   1.703841E+04
  4   1.949080E+02   2.097472E+02   1.087183E+01   3.494520E+02   1.703875E+04
  5   1.949104E+02   2.097472E+02   1.087188E+01   3.494598E+02   1.703945E+04
  6   1.949066E+02   2.097472E+02   1.087176E+01   3.494499E+02   1.703887E+04
  7   3.055729E+01   2.988899E+01   4.563144E+00   4.513551E+01   5.906574E+02
  8   3.055667E+01   2.988899E+01   4.563064E+00   4.513434E+01   5.906472E+02
  9   3.055769E+01   2.988899E+01   4.563176E+00   4.513580E+01   5.906582E+02

+ Dispersion coefficients
# All results in atomic units (Hartree,bohr).
# i   j      C6             C8             C10            Rc            Rvdw
  1   1   7.771817E+02   7.494443E+04   8.244967E+06   1.015252E+01   9.376555E+00
  2   1   7.771672E+02   7.494185E+04   8.244599E+06   1.015245E+01   9.376512E+00
  2   2   7.771528E+02   7.493928E+04   8.244230E+06   1.015238E+01   9.376469E+00
  3   1   7.771711E+02   7.494208E+04   8.244604E+06   1.015244E+01   9.376505E+00
  3   2   7.771566E+02   7.493951E+04   8.244235E+06   1.015237E+01   9.376462E+00
  3   3   7.771605E+02   7.493974E+04   8.244240E+06   1.015236E+01   9.376455E+00
  4   1   7.771953E+02   7.494481E+04   8.244894E+06   1.015245E+01   9.376511E+00
  4   2   7.771808E+02   7.494224E+04   8.244526E+06   1.015238E+01   9.376469E+00
  4   3   7.771847E+02   7.494246E+04   8.244530E+06   1.015237E+01   9.376461E+00
  4   4   7.772088E+02   7.494519E+04   8.244821E+06   1.015238E+01   9.376468E+00
  5   1   7.772020E+02   7.494612E+04   8.245114E+06   1.015250E+01   9.376541E+00
  5   2   7.771875E+02   7.494355E+04   8.244745E+06   1.015243E+01   9.376498E+00
  5   3   7.771914E+02   7.494378E+04   8.244750E+06   1.015242E+01   9.376491E+00
  5   4   7.772156E+02   7.494650E+04   8.245041E+06   1.015243E+01   9.376498E+00
  5   5   7.772223E+02   7.494781E+04   8.245260E+06   1.015247E+01   9.376527E+00
  6   1   7.771899E+02   7.494431E+04   8.244873E+06   1.015246E+01   9.376519E+00
  6   2   7.771754E+02   7.494174E+04   8.244504E+06   1.015240E+01   9.376476E+00
  6   3   7.771792E+02   7.494196E+04   8.244509E+06   1.015238E+01   9.376469E+00
  6   4   7.772034E+02   7.494469E+04   8.244799E+06   1.015239E+01   9.376475E+00
  6   5   7.772101E+02   7.494600E+04   8.245019E+06   1.015244E+01   9.376505E+00
  6   6   7.771980E+02   7.494419E+04   8.244778E+06   1.015241E+01   9.376483E+00
  7   1   7.181809E+01   4.528309E+03   3.396200E+05   8.297785E+00   8.168754E+00
  7   2   7.181737E+01   4.528155E+03   3.396035E+05   8.297706E+00   8.168702E+00
  7   3   7.181786E+01   4.528172E+03   3.396033E+05   8.297691E+00   8.168692E+00
  7   4   7.181950E+01   4.528313E+03   3.396119E+05   8.297695E+00   8.168695E+00
  7   5   7.181991E+01   4.528399E+03   3.396237E+05   8.297755E+00   8.168735E+00
  7   6   7.181902E+01   4.528284E+03   3.396128E+05   8.297715E+00   8.168708E+00
  7   7   1.693649E+01   5.025727E+02   1.572865E+04   5.520680E+00   6.360303E+00
  8   1   7.181795E+01   4.528292E+03   3.396185E+05   8.297781E+00   8.168751E+00
  8   2   7.181723E+01   4.528137E+03   3.396020E+05   8.297701E+00   8.168699E+00
  8   3   7.181772E+01   4.528155E+03   3.396018E+05   8.297686E+00   8.168689E+00
  8   4   7.181936E+01   4.528295E+03   3.396105E+05   8.297690E+00   8.168692E+00
  8   5   7.181977E+01   4.528382E+03   3.396223E+05   8.297751E+00   8.168732E+00
  8   6   7.181888E+01   4.528267E+03   3.396114E+05   8.297710E+00   8.168705E+00
  8   7   1.693634E+01   5.025662E+02   1.572845E+04   5.520675E+00   6.360300E+00
  8   8   1.693619E+01   5.025597E+02   1.572826E+04   5.520671E+00   6.360297E+00
  9   1   7.181815E+01   4.528312E+03   3.396201E+05   8.297784E+00   8.168753E+00
  9   2   7.181743E+01   4.528158E+03   3.396036E+05   8.297705E+00   8.168702E+00
  9   3   7.181791E+01   4.528176E+03   3.396034E+05   8.297690E+00   8.168692E+00
  9   4   7.181956E+01   4.528316E+03   3.396120E+05   8.297694E+00   8.168695E+00
  9   5   7.181996E+01   4.528402E+03   3.396238E+05   8.297755E+00   8.168734E+00
  9   6   7.181907E+01   4.528287E+03   3.396129E+05   8.297714E+00   8.168708E+00
  9   7   1.693655E+01   5.025743E+02   1.572867E+04   5.520678E+00   6.360302E+00
  9   8   1.693640E+01   5.025678E+02   1.572848E+04   5.520673E+00   6.360299E+00
  9   9   1.693661E+01   5.025760E+02   1.572870E+04   5.520675E+00   6.360300E+00

+ van der Waals energies, forces and stresses (Ry,bohr)
  Evdw(total,Ry)   =  -4.051114737181E-01
  Evdw(C6,Ry)      =  -1.414525946252E-01
  Evdw(C8,Ry)      =  -1.240725594232E-01
  Evdw(C10,Ry)     =  -1.395863196697E-01
  Fvdw (001,Ry/bohr) =   2.029652358667E-09   2.380176993845E-09   4.289577577819E-03
  Fvdw (002,Ry/bohr) =  -3.362095541845E-09   2.196332744400E-09   4.289993672669E-03
  Fvdw (003,Ry/bohr) =   1.172611829582E-09  -4.488909270513E-09   4.289733513162E-03
  Fvdw (004,Ry/bohr) =   3.362081236324E-09  -1.295695699203E-10  -4.289722381113E-03
  Fvdw (005,Ry/bohr) =  -1.594889608725E-09   5.072176730604E-09  -4.289914047023E-03
  Fvdw (006,Ry/bohr) =  -7.374252209385E-10  -3.971293098198E-09  -4.289713902748E-03
  Fvdw (007,Ry/bohr) =   3.354610948301E-10  -5.181478369527E-10  -4.389054836952E-08
  Fvdw (008,Ry/bohr) =  -1.205364876591E-09   1.526737547191E-09   1.988048368077E-08
  Fvdw (009,Ry/bohr) =  -3.122905966627E-14  -2.067504251752E-09   6.957729948551E-08
  sigma_vdw (Ry/bohr**3) =  -2.197234827140E-04   3.570468657650E-11   1.627192532111E-12  
                             3.570468657650E-11  -2.197234317979E-04   1.114073779107E-12  
                             1.627192532111E-12   1.114073779107E-12  -1.254655732113E-04  
  sigma_vdw (GPa) =  -3.232243479380E+00   5.252339847553E-07   2.393682453348E-08  
                      5.252339847553E-07  -3.232242730378E+00   1.638858834562E-08  
                      2.393682453348E-08   1.638858834562E-08  -1.845661992473E+00  


!    total energy              =    -889.40059386 Ry
     Harris-Foulkes estimate   =    -889.40059386 Ry
     estimated scf accuracy    <          3.9E-09 Ry

     total all-electron energy =     -8496.882910 Ry

     The total energy is the sum of the following terms:

     one-electron contribution =    -577.81925444 Ry
     hartree contribution      =     310.71863755 Ry
     xc contribution           =    -122.13469996 Ry
     ewald contribution        =    -141.09664032 Ry
     Dispersion XDM Correction =      -0.40511147 Ry
     one-center paw contrib.   =    -358.66237813 Ry
     smearing contrib. (-TS)   =      -0.00114708 Ry

     convergence has been achieved in  21 iterations

     Forces acting on atoms (Ry/au):

     atom    1 type  2   force =    -0.00000000   -0.00000000   -0.01757342
     atom    2 type  2   force =     0.00000000   -0.00000000   -0.01753256
     atom    3 type  2   force =     0.00000000   -0.00000000   -0.01758234
     atom    4 type  2   force =     0.00000000    0.00000000    0.01757342
     atom    5 type  2   force =     0.00000000    0.00000000    0.01758234
     atom    6 type  2   force =    -0.00000000    0.00000000    0.01753256
     atom    7 type  1   force =     0.00000000    0.00000000    0.00000000
     atom    8 type  1   force =     0.00000000    0.00000000   -0.00000799
     atom    9 type  1   force =    -0.00000000   -0.00000000    0.00000799

     Total force =     0.000000     Total SCF correction =     0.000000


     entering subroutine stress ...

          total   stress  (Ry/bohr**3)                   (kbar)     P=    1.91
   0.00009318   0.00000000   0.00000000         13.71      0.00      0.00
   0.00000000   0.00009318   0.00000000          0.00     13.71      0.00
   0.00000000   0.00000000  -0.00014733          0.00      0.00    -21.67


     BFGS Geometry Optimization

     number of scf cycles    =   1
     number of bfgs steps    =   0

     enthalpy new            =    -889.4005938595 Ry

     new trust radius        =       0.0199604913 bohr
     new conv_thr            =       0.0000000100 Ry

     new unit-cell volume =   1843.94590 a.u.^3 (   273.24459 Ang^3 )

CELL_PARAMETERS (alat=  1.00000000)
   6.606764217   0.000000001   0.000000000
  -3.303382608   5.721626006   0.000000000
  -0.000000000  -0.000000000  48.779787000

ATOMIC_POSITIONS (bohr)
ca      -3.303378599   5.721631018  13.891255000    1   1   0
ca       3.303378601   1.907216688  30.151093000    1   1   0
ca       0.000000001   3.814414331  46.410950000    1   1   0
ca      -3.303378599   5.721631018  34.888542000    1   1   0
ca       3.303378601   1.907216688   2.368601000    1   1   0
ca       0.000000001   3.814414331  18.628439000    1   1   0
n        0.000000000   0.000000000   0.000000000    1   1   0
n        3.303378601   1.907216688  16.259838000    1   1   0
n        0.000000001   3.814414331  32.519695000    1   1   0



     Writing output data file crystal-5.save
     NEW-OLD atomic charge density approx. for the potential

     Check: negative/imaginary core charge=   -0.000003    0.000000
     extrapolated charge   75.34809, renormalised to   75.00000

     total cpu time spent up to now is      202.2 secs

     Self-consistent Calculation

     iteration #  1     ecut=    60.00 Ry     beta=0.70
     Davidson diagonalization with overlap
     ethr =  1.00E-06,  avg # of iterations =  6.6

     total cpu time spent up to now is      216.3 secs

     total energy              =    -888.95617498 Ry
     Harris-Foulkes estimate   =    -886.87116313 Ry
     estimated scf accuracy    <       0.03754756 Ry

     iteration #  2     ecut=    60.00 Ry     beta=0.70
     Davidson diagonalization with overlap
     ethr =  5.01E-05,  avg # of iterations =  4.3

     total cpu time spent up to now is      228.8 secs

     total energy              =    -888.97309756 Ry
     Harris-Foulkes estimate   =    -889.04438447 Ry
     estimated scf accuracy    <       0.23312200 Ry

     iteration #  3     ecut=    60.00 Ry     beta=0.70
     Davidson diagonalization with overlap
     ethr =  5.01E-05,  avg # of iterations =  5.5

     total cpu time spent up to now is      238.6 secs

     total energy              =    -888.98534203 Ry
     Harris-Foulkes estimate   =    -889.00847483 Ry
     estimated scf accuracy    <       0.45756155 Ry

     iteration #  4     ecut=    60.00 Ry     beta=0.70
     Davidson diagonalization with overlap
     c_bands:  1 eigenvalues not converged
     ethr =  5.01E-05,  avg # of iterations =  9.9

     total cpu time spent up to now is      247.4 secs

     total energy              =    -888.99520837 Ry
     Harris-Foulkes estimate   =    -889.00409574 Ry
     estimated scf accuracy    <       0.26819155 Ry

     iteration #  5     ecut=    60.00 Ry     beta=0.70
     Davidson diagonalization with overlap
     ethr =  5.01E-05,  avg # of iterations =  3.6

     total cpu time spent up to now is      254.5 secs

     total energy              =    -888.99894551 Ry
     Harris-Foulkes estimate   =    -888.99954903 Ry
     estimated scf accuracy    <       0.01103658 Ry

     iteration #  6     ecut=    60.00 Ry     beta=0.70
     Davidson diagonalization with overlap
     ethr =  1.47E-05,  avg # of iterations =  4.9

     total cpu time spent up to now is      261.8 secs

     total energy              =    -888.99885019 Ry
     Harris-Foulkes estimate   =    -888.99929663 Ry
     estimated scf accuracy    <       0.00747329 Ry

     iteration #  7     ecut=    60.00 Ry     beta=0.70
     Davidson diagonalization with overlap
     ethr =  9.96E-06,  avg # of iterations =  1.0

     total cpu time spent up to now is      268.3 secs

     total energy              =    -888.99861721 Ry
     Harris-Foulkes estimate   =    -888.99890962 Ry
     estimated scf accuracy    <       0.00487262 Ry

     iteration #  8     ecut=    60.00 Ry     beta=0.70
     Davidson diagonalization with overlap
     ethr =  6.50E-06,  avg # of iterations =  2.0

     total cpu time spent up to now is      275.0 secs

     total energy              =    -888.99840675 Ry
     Harris-Foulkes estimate   =    -888.99865086 Ry
     estimated scf accuracy    <       0.00351462 Ry

     iteration #  9     ecut=    60.00 Ry     beta=0.70
     Davidson diagonalization with overlap
     ethr =  4.69E-06,  avg # of iterations =  2.0

     total cpu time spent up to now is      281.7 secs

     total energy              =    -888.99826379 Ry
     Harris-Foulkes estimate   =    -888.99843964 Ry
     estimated scf accuracy    <       0.00230929 Ry

     iteration # 10     ecut=    60.00 Ry     beta=0.70
     Davidson diagonalization with overlap
     ethr =  3.08E-06,  avg # of iterations =  3.8

     total cpu time spent up to now is      288.9 secs

     total energy              =    -888.99784714 Ry
     Harris-Foulkes estimate   =    -888.99829399 Ry
     estimated scf accuracy    <       0.00138051 Ry

     iteration # 11     ecut=    60.00 Ry     beta=0.70
     Davidson diagonalization with overlap
     ethr =  1.84E-06,  avg # of iterations =  5.9

     total cpu time spent up to now is      297.8 secs

     total energy              =    -888.99806431 Ry
     Harris-Foulkes estimate   =    -888.99807436 Ry
     estimated scf accuracy    <       0.00007297 Ry

     iteration # 12     ecut=    60.00 Ry     beta=0.70
     Davidson diagonalization with overlap
     ethr =  9.73E-08,  avg # of iterations =  2.6

     total cpu time spent up to now is      305.8 secs

     total energy              =    -888.99807178 Ry
     Harris-Foulkes estimate   =    -888.99807625 Ry
     estimated scf accuracy    <       0.00004474 Ry

     iteration # 13     ecut=    60.00 Ry     beta=0.70
     Davidson diagonalization with overlap
     ethr =  5.97E-08,  avg # of iterations =  1.3

     total cpu time spent up to now is      312.4 secs

     total energy              =    -888.99806852 Ry
     Harris-Foulkes estimate   =    -888.99807354 Ry
     estimated scf accuracy    <       0.00001253 Ry

     iteration # 14     ecut=    60.00 Ry     beta=0.70
     Davidson diagonalization with overlap
     ethr =  1.67E-08,  avg # of iterations =  3.6

     total cpu time spent up to now is      321.1 secs

     total energy              =    -888.99807222 Ry
     Harris-Foulkes estimate   =    -888.99807593 Ry
     estimated scf accuracy    <       0.00005053 Ry

     iteration # 15     ecut=    60.00 Ry     beta=0.70
     Davidson diagonalization with overlap
     ethr =  1.67E-08,  avg # of iterations =  2.4

     total cpu time spent up to now is      328.1 secs

     total energy              =    -888.99807308 Ry
     Harris-Foulkes estimate   =    -888.99807334 Ry
     estimated scf accuracy    <       0.00000404 Ry

     iteration # 16     ecut=    60.00 Ry     beta=0.70
     Davidson diagonalization with overlap
     ethr =  5.39E-09,  avg # of iterations =  1.6

     total cpu time spent up to now is      334.8 secs

     total energy              =    -888.99807265 Ry
     Harris-Foulkes estimate   =    -888.99807321 Ry
     estimated scf accuracy    <       0.00000699 Ry

     iteration # 17     ecut=    60.00 Ry     beta=0.70
     Davidson diagonalization with overlap
     ethr =  5.39E-09,  avg # of iterations =  3.0

     total cpu time spent up to now is      342.1 secs

     total energy              =    -888.99807299 Ry
     Harris-Foulkes estimate   =    -888.99807302 Ry
     estimated scf accuracy    <       0.00000018 Ry

     iteration # 18     ecut=    60.00 Ry     beta=0.70
     Davidson diagonalization with overlap
     ethr =  2.46E-10,  avg # of iterations =  2.8

     total cpu time spent up to now is      349.7 secs

     total energy              =    -888.99807295 Ry
     Harris-Foulkes estimate   =    -888.99807302 Ry
     estimated scf accuracy    <       0.00000012 Ry

     iteration # 19     ecut=    60.00 Ry     beta=0.70
     Davidson diagonalization with overlap
     ethr =  1.59E-10,  avg # of iterations =  2.6

     total cpu time spent up to now is      357.3 secs

     total energy              =    -888.99807298 Ry
     Harris-Foulkes estimate   =    -888.99807297 Ry
     estimated scf accuracy    <       0.00000001 Ry

     iteration # 20     ecut=    60.00 Ry     beta=0.70
     Davidson diagonalization with overlap
     ethr =  1.65E-11,  avg # of iterations =  3.1

     total cpu time spent up to now is      365.2 secs

     total energy              =    -888.99807298 Ry
     Harris-Foulkes estimate   =    -888.99807298 Ry
     estimated scf accuracy    <       0.00000001 Ry

     iteration # 21     ecut=    60.00 Ry     beta=0.70
     Davidson diagonalization with overlap
     ethr =  1.41E-11,  avg # of iterations =  3.0

     total cpu time spent up to now is      372.7 secs

     End of self-consistent calculation

          k = 0.0189 0.0328 0.0026 ( 14352 PWs)   bands (ev):

   -36.1209 -36.1186 -36.1166 -36.0533 -36.0510 -36.0490 -17.4851 -17.4827
   -17.4806 -17.1976 -17.1952 -17.1931 -17.1339 -17.1316 -17.1295 -17.0314
   -17.0291 -17.0271 -16.9915 -16.9893 -16.9872 -16.9814 -16.9791 -16.9771
    -8.0500  -8.0458  -8.0420   1.4562   1.4633   1.4817   1.8558   1.8734
     1.8806   2.6118   2.6161   2.6199   4.1693   4.3147   4.3897   5.1236
     5.2437   5.5235   6.4493   6.4670   6.5504   7.4535

          k = 0.0189 0.0328 0.0077 ( 14360 PWs)   bands (ev):

   -36.1209 -36.1186 -36.1166 -36.0533 -36.0510 -36.0490 -17.4851 -17.4827
   -17.4806 -17.1976 -17.1952 -17.1931 -17.1339 -17.1316 -17.1295 -17.0314
   -17.0291 -17.0271 -16.9915 -16.9893 -16.9872 -16.9814 -16.9791 -16.9771
    -8.0500  -8.0458  -8.0420   1.4529   1.4703   1.4779   1.8592   1.8669
     1.8836   2.6117   2.6161   2.6199   4.1956   4.2459   4.4449   5.0433
     5.3673   5.4675   6.4409   6.4937   6.5259   7.5195

          k = 0.0189 0.0765 0.0026 ( 14435 PWs)   bands (ev):

   -36.0736 -36.0713 -36.0692 -36.0459 -36.0437 -36.0417 -17.5346 -17.5322
   -17.5300 -17.3982 -17.3958 -17.3937 -17.2063 -17.2039 -17.2018 -17.1288
   -17.1265 -17.1245 -17.0336 -17.0314 -17.0293 -17.0144 -17.0122 -17.0101
    -7.8736  -7.8694  -7.8658   1.4089   1.4131   1.4173   2.3334   2.3369
     2.3401   2.4927   2.4969   2.5006   5.5441   5.5806   5.6258   5.7762
     5.9537   5.9594   6.2057   6.2380   6.3215   7.2252

          k = 0.0189 0.0765 0.0077 ( 14429 PWs)   bands (ev):

   -36.0736 -36.0713 -36.0692 -36.0459 -36.0437 -36.0417 -17.5346 -17.5322
   -17.5300 -17.3982 -17.3958 -17.3937 -17.2063 -17.2039 -17.2018 -17.1288
   -17.1265 -17.1245 -17.0336 -17.0314 -17.0293 -17.0144 -17.0122 -17.0101
    -7.8736  -7.8694  -7.8658   1.4089   1.4132   1.4173   2.3334   2.3369
     2.3401   2.4927   2.4969   2.5006   5.5533   5.5629   5.6364   5.7813
     5.9006   6.0177   6.1826   6.2444   6.3256   7.2018

          k = 0.0189-0.0546 0.0026 ( 14407 PWs)   bands (ev):

   -36.0953 -36.0930 -36.0909 -36.0469 -36.0447 -36.0427 -17.4916 -17.4891
   -17.4870 -17.3240 -17.3216 -17.3195 -17.1957 -17.1934 -17.1913 -17.0870
   -17.0848 -17.0827 -17.0247 -17.0225 -17.0205 -16.9909 -16.9887 -16.9866
    -7.9397  -7.9355  -7.9317   1.5484   1.5532   1.5613   2.0118   2.0196
     2.0240   2.5455   2.5498   2.5536   4.8840   4.9451   5.0601   5.5164
     5.6582   5.7332   6.0650   6.1885   6.3319   7.2736

          k = 0.0189-0.0546 0.0077 ( 14417 PWs)   bands (ev):

   -36.0953 -36.0930 -36.0909 -36.0469 -36.0447 -36.0427 -17.4916 -17.4891
   -17.4870 -17.3240 -17.3216 -17.3195 -17.1957 -17.1934 -17.1913 -17.0870
   -17.0848 -17.0827 -17.0247 -17.0225 -17.0205 -16.9909 -16.9887 -16.9866
    -7.9397  -7.9355  -7.9317   1.5474   1.5552   1.5603   2.0118   2.0196
     2.0239   2.5455   2.5498   2.5536   4.8706   4.9952   5.0179   5.5335
     5.6786   5.6967   6.0477   6.2546   6.2872   7.2744

          k = 0.0189-0.0109 0.0026 ( 14324 PWs)   bands (ev):

   -36.1376 -36.1353 -36.1333 -36.0591 -36.0569 -36.0548 -17.5025 -17.5001
   -17.4980 -17.1058 -17.1035 -17.1014 -17.0440 -17.0417 -17.0396 -17.0106
   -17.0083 -17.0062 -16.9820 -16.9798 -16.9777 -16.9631 -16.9609 -16.9588
    -8.1402  -8.1359  -8.1321   1.0644   1.0746   1.0968   2.2013   2.2298
     2.2369   2.6346   2.6389   2.6426   3.6672   3.8464   4.0309   4.6648
     4.9558   5.4293   7.0322   7.0543   7.0898   7.1570

          k = 0.0189-0.0109 0.0077 ( 14329 PWs)   bands (ev):

   -36.1376 -36.1353 -36.1333 -36.0591 -36.0569 -36.0548 -17.5025 -17.5001
   -17.4980 -17.1058 -17.1035 -17.1014 -17.0440 -17.0417 -17.0396 -17.0106
   -17.0083 -17.0063 -16.9820 -16.9798 -16.9777 -16.9631 -16.9609 -16.9588
    -8.1402  -8.1359  -8.1321   1.0603   1.0839   1.0915   2.2060   2.2196
     2.2423   2.6346   2.6389   2.6426   3.7120   3.7488   4.1394   4.5154
     5.1711   5.2970   7.0263   7.0484   7.0851   7.2795

          k = 0.0568 0.0983 0.0026 ( 14401 PWs)   bands (ev):

   -36.0612 -36.0590 -36.0568 -36.0489 -36.0466 -36.0447 -17.4850 -17.4825
   -17.4804 -17.3707 -17.3683 -17.3662 -17.3142 -17.3118 -17.3097 -17.1572
   -17.1550 -17.1529 -17.0509 -17.0487 -17.0467 -17.0278 -17.0256 -17.0236
    -7.8427  -7.8385  -7.8349   1.6986   1.7028   1.7065   2.1407   2.1448
     2.1486   2.4017   2.4051   2.4082   5.9302   5.9766   6.0036   6.1610
     6.2009   6.3156   6.3352   6.3485   6.3518   7.2351

          k = 0.0568 0.0983 0.0077 ( 14395 PWs)   bands (ev):

   -36.0612 -36.0590 -36.0568 -36.0489 -36.0466 -36.0447 -17.4850 -17.4825
   -17.4804 -17.3707 -17.3683 -17.3662 -17.3142 -17.3118 -17.3097 -17.1572
   -17.1550 -17.1529 -17.0509 -17.0487 -17.0467 -17.0278 -17.0256 -17.0236
    -7.8427  -7.8385  -7.8349   1.6986   1.7028   1.7065   2.1407   2.1448
     2.1486   2.4017   2.4051   2.4082   5.9382   5.9541   6.0272   6.1308
     6.2425   6.2824   6.3267   6.3600   6.3622   7.2568

          k = 0.0568-0.0328 0.0026 ( 14428 PWs)   bands (ev):

   -36.0868 -36.0846 -36.0825 -36.0460 -36.0437 -36.0417 -17.5254 -17.5230
   -17.5208 -17.3835 -17.3811 -17.3790 -17.1418 -17.1395 -17.1375 -17.1354
   -17.1331 -17.1310 -17.0138 -17.0115 -17.0095 -16.9950 -16.9927 -16.9907
    -7.9139  -7.9097  -7.9060   1.3474   1.3517   1.3581   2.2048   2.2085
     2.2124   2.6516   2.6558   2.6595   5.0974   5.2116   5.2921   5.5876
     5.5938   5.7639   5.9979   6.0181   6.1005   7.4466

          k = 0.0568-0.0328 0.0077 ( 14438 PWs)   bands (ev):

   -36.0868 -36.0846 -36.0825 -36.0460 -36.0437 -36.0417 -17.5254 -17.5230
   -17.5209 -17.3835 -17.3811 -17.3790 -17.1418 -17.1395 -17.1375 -17.1354
   -17.1331 -17.1310 -17.0138 -17.0115 -17.0095 -16.9950 -16.9928 -16.9907
    -7.9139  -7.9097  -7.9060   1.3470   1.3524   1.3578   2.2048   2.2085
     2.2123   2.6516   2.6558   2.6595   5.0932   5.2251   5.2869   5.5269
     5.6830   5.7328   5.9706   6.0586   6.0858   7.4428

          k =-0.0189 0.0765-0.0026 ( 14435 PWs)   bands (ev):

   -36.0736 -36.0713 -36.0692 -36.0459 -36.0437 -36.0417 -17.5346 -17.5322
   -17.5300 -17.3982 -17.3958 -17.3937 -17.2063 -17.2039 -17.2018 -17.1288
   -17.1265 -17.1245 -17.0336 -17.0314 -17.0293 -17.0144 -17.0122 -17.0101
    -7.8736  -7.8694  -7.8658   1.4089   1.4133   1.4173   2.3334   2.3369
     2.3401   2.4927   2.4969   2.5006   5.5434   5.5980   5.6022   5.8039
     5.8859   6.0195   6.1639   6.2837   6.3044   7.2640

          k =-0.0189 0.0765-0.0077 ( 14429 PWs)   bands (ev):

   -36.0736 -36.0713 -36.0692 -36.0459 -36.0437 -36.0417 -17.5346 -17.5322
   -17.5300 -17.3982 -17.3958 -17.3937 -17.2063 -17.2039 -17.2018 -17.1288
   -17.1265 -17.1245 -17.0336 -17.0314 -17.0293 -17.0144 -17.0122 -17.0101
    -7.8736  -7.8694  -7.8658   1.4088   1.4133   1.4172   2.3333   2.3369
     2.3401   2.4927   2.4969   2.5006   5.5500   5.5719   5.6235   5.8239
     5.8477   6.0553   6.1412   6.2778   6.3135   7.2153

          k =-0.0189-0.0546-0.0026 ( 14407 PWs)   bands (ev):

   -36.0953 -36.0930 -36.0909 -36.0469 -36.0447 -36.0427 -17.4916 -17.4891
   -17.4870 -17.3240 -17.3216 -17.3195 -17.1957 -17.1934 -17.1913 -17.0870
   -17.0848 -17.0827 -17.0247 -17.0225 -17.0205 -16.9909 -16.9887 -16.9866
    -7.9397  -7.9355  -7.9317   1.5482   1.5535   1.5612   2.0129   2.0174
     2.0250   2.5455   2.5498   2.5536   4.9036   4.9167   5.0697   5.5391
     5.6153   5.7453   6.1243   6.1299   6.3390   7.2653

          k =-0.0189-0.0546-0.0077 ( 14417 PWs)   bands (ev):

   -36.0953 -36.0930 -36.0909 -36.0469 -36.0447 -36.0427 -17.4916 -17.4891
   -17.4870 -17.3240 -17.3216 -17.3195 -17.1957 -17.1934 -17.1913 -17.0870
   -17.0848 -17.0827 -17.0247 -17.0225 -17.0205 -16.9909 -16.9887 -16.9866
    -7.9397  -7.9355  -7.9317   1.5473   1.5554   1.5602   2.0129   2.0175
     2.0250   2.5455   2.5498   2.5536   4.8775   4.9644   5.0425   5.5714
     5.6018   5.7280   6.0735   6.2136   6.3097   7.2656

          k =-0.0189-0.0109-0.0026 ( 14324 PWs)   bands (ev):

   -36.1376 -36.1353 -36.1333 -36.0591 -36.0569 -36.0548 -17.5025 -17.5001
   -17.4980 -17.1058 -17.1035 -17.1014 -17.0440 -17.0417 -17.0396 -17.0106
   -17.0083 -17.0063 -16.9820 -16.9798 -16.9777 -16.9631 -16.9609 -16.9588
    -8.1402  -8.1359  -8.1321   1.0656   1.0729   1.0973   2.2022   2.2264
     2.2393   2.6346   2.6389   2.6426   3.6581   3.9006   3.9720   4.7390
     4.8772   5.4503   7.0371   7.0396   7.0616   7.1968

          k =-0.0189-0.0109-0.0077 ( 14329 PWs)   bands (ev):

   -36.1376 -36.1353 -36.1333 -36.0591 -36.0569 -36.0548 -17.5025 -17.5001
   -17.4980 -17.1058 -17.1035 -17.1014 -17.0440 -17.0417 -17.0396 -17.0106
   -17.0083 -17.0063 -16.9820 -16.9798 -16.9777 -16.9631 -16.9609 -16.9588
    -8.1402  -8.1359  -8.1321   1.0608   1.0821   1.0928   2.2084   2.2162
     2.2433   2.6346   2.6389   2.6426   3.6853   3.7910   4.1026   4.5574
     5.0989   5.3512   7.0232   7.0431   7.0713   7.3186

          k =-0.0568-0.0328-0.0026 ( 14428 PWs)   bands (ev):

   -36.0868 -36.0846 -36.0825 -36.0460 -36.0437 -36.0417 -17.5254 -17.5230
   -17.5208 -17.3835 -17.3811 -17.3790 -17.1418 -17.1395 -17.1375 -17.1354
   -17.1331 -17.1310 -17.0138 -17.0115 -17.0095 -16.9950 -16.9927 -16.9907
    -7.9139  -7.9097  -7.9060   1.3470   1.3525   1.3578   2.2047   2.2088
     2.2122   2.6516   2.6558   2.6595   5.1228   5.1516   5.3573   5.5028
     5.6431   5.7762   5.9773   6.0300   6.1017   7.4786

          k =-0.0568-0.0328-0.0077 ( 14438 PWs)   bands (ev):

   -36.0868 -36.0846 -36.0825 -36.0460 -36.0437 -36.0417 -17.5254 -17.5230
   -17.5209 -17.3835 -17.3811 -17.3790 -17.1418 -17.1395 -17.1375 -17.1354
   -17.1331 -17.1310 -17.0138 -17.0115 -17.0095 -16.9950 -16.9928 -16.9907
    -7.9139  -7.9097  -7.9060   1.3466   1.3533   1.3573   2.2047   2.2088
     2.2122   2.6516   2.6558   2.6595   5.1115   5.1668   5.3630   5.4720
     5.6917   5.7505   5.9588   6.0609   6.0877   7.4673

     the Fermi energy is     5.0243 ev

* XDM dispersion
  a1 =     0.651200
  a2 (ang) =     1.463300
  a2 (bohr) =     2.765236

+ van der Waals energies, forces and stresses (Ry,bohr)
  Evdw(total,Ry)   =  -4.032406834047E-01
  Evdw(C6,Ry)      =  -1.407741965117E-01
  Evdw(C8,Ry)      =  -1.234957507094E-01
  Evdw(C10,Ry)     =  -1.389707361836E-01
  Fvdw (001,Ry/bohr) =   2.052978223792E-09   2.406148756207E-09   4.260450529694E-03
  Fvdw (002,Ry/bohr) =  -3.380348691029E-09   2.223593121512E-09   4.260863718293E-03
  Fvdw (003,Ry/bohr) =   1.189239404602E-09  -4.525653931948E-09   4.260604670272E-03
  Fvdw (004,Ry/bohr) =   3.380333009643E-09  -1.244652009911E-10  -4.260593454841E-03
  Fvdw (005,Ry/bohr) =  -1.611547391983E-09   5.114286580148E-09  -4.260784575569E-03
  Fvdw (006,Ry/bohr) =  -7.473828818174E-10  -4.017666401358E-09  -4.260586112858E-03
  Fvdw (007,Ry/bohr) =   3.402605037294E-10  -5.271972778657E-10  -4.347394172117E-08
  Fvdw (008,Ry/bohr) =  -1.223500928899E-09   1.550051542492E-09   1.967472465820E-08
  Fvdw (009,Ry/bohr) =  -3.128394201087E-14  -2.099097194975E-09   6.902422473958E-08
  sigma_vdw (Ry/bohr**3) =  -2.173089526702E-04   3.145514734638E-11   1.834760931920E-12  
                             3.145514734638E-11  -2.173089069109E-04   9.428738394616E-13  
                             1.834760931920E-12   9.428738394616E-13  -1.242315246981E-04  
  sigma_vdw (GPa) =  -3.196724522127E+00   4.627211149553E-07   2.699026060013E-08  
                      4.627211149553E-07  -3.196723848985E+00   1.387015070867E-08  
                      2.699026060013E-08   1.387015070867E-08  -1.827508515153E+00  


!    total energy              =    -889.40131367 Ry
     Harris-Foulkes estimate   =    -889.40131367 Ry
     estimated scf accuracy    <          9.1E-10 Ry

     total all-electron energy =     -8496.883630 Ry

     The total energy is the sum of the following terms:

     one-electron contribution =    -576.62439953 Ry
     hartree contribution      =     310.00027505 Ry
     xc contribution           =    -122.10991074 Ry
     ewald contribution        =    -141.60031638 Ry
     Dispersion XDM Correction =      -0.40324068 Ry
     one-center paw contrib.   =    -358.66258264 Ry
     smearing contrib. (-TS)   =      -0.00113874 Ry

     convergence has been achieved in  21 iterations

     Forces acting on atoms (Ry/au):

     atom    1 type  2   force =     0.00000000   -0.00000000   -0.01658191
     atom    2 type  2   force =    -0.00000000    0.00000000   -0.01660288
     atom    3 type  2   force =     0.00000000   -0.00000000   -0.01659999
     atom    4 type  2   force =     0.00000000    0.00000000    0.01658191
     atom    5 type  2   force =    -0.00000000    0.00000000    0.01659999
     atom    6 type  2   force =     0.00000000   -0.00000000    0.01660288
     atom    7 type  1   force =     0.00000000   -0.00000000    0.00000000
     atom    8 type  1   force =     0.00000000    0.00000000   -0.00000182
     atom    9 type  1   force =    -0.00000000    0.00000000    0.00000182

     Total force =     0.000000     Total SCF correction =     0.000000


     entering subroutine stress ...

          total   stress  (Ry/bohr**3)                   (kbar)     P=   -0.22
   0.00007483   0.00000000  -0.00000000         11.01      0.00     -0.00
   0.00000000   0.00007483   0.00000000          0.00     11.01      0.00
   0.00000000   0.00000000  -0.00015408          0.00      0.00    -22.67


     number of scf cycles    =   2
     number of bfgs steps    =   1

     enthalpy old            =    -889.4005938595 Ry
     enthalpy new            =    -889.4013136672 Ry

     CASE: enthalpy_new < enthalpy_old


     WARNING: bfgs curvature condition failed, Theta= 0.994
     new trust radius        =       0.0219565404 bohr
     new conv_thr            =            1.0E-10 Ry

     new unit-cell volume =   1853.38635 a.u.^3 (   274.64352 Ang^3 )

CELL_PARAMETERS (alat=  1.00000000)
   6.623654956   0.000000003   0.000000000
  -3.311827978   5.736253814   0.000000000
  -0.000000000  -0.000000000  48.779787000

ATOMIC_POSITIONS (bohr)
ca      -3.311823958   5.736258838  13.891255000    1   1   0
ca       3.311823961   1.912092646  30.151093000    1   1   0
ca       0.000000002   3.824166195  46.410950000    1   1   0
ca      -3.311823958   5.736258838  34.888542000    1   1   0
ca       3.311823961   1.912092646   2.368601000    1   1   0
ca       0.000000002   3.824166195  18.628439000    1   1   0
n       -0.000000000  -0.000000000   0.000000000    1   1   0
n        3.311823961   1.912092646  16.259838000    1   1   0
n        0.000000002   3.824166195  32.519695000    1   1   0



     Writing output data file crystal-5.save
     NEW-OLD atomic charge density approx. for the potential

     Check: negative/imaginary core charge=   -0.000003    0.000000
     extrapolated charge   75.38188, renormalised to   75.00000

     total cpu time spent up to now is      392.1 secs

     Self-consistent Calculation

     iteration #  1     ecut=    60.00 Ry     beta=0.70
     Davidson diagonalization with overlap
     ethr =  1.00E-06,  avg # of iterations =  7.0

     total cpu time spent up to now is      406.3 secs

     total energy              =    -888.95026366 Ry
     Harris-Foulkes estimate   =    -886.67584489 Ry
     estimated scf accuracy    <       0.04522317 Ry

     iteration #  2     ecut=    60.00 Ry     beta=0.70
     Davidson diagonalization with overlap
     ethr =  6.03E-05,  avg # of iterations =  4.7

     total cpu time spent up to now is      418.9 secs

     total energy              =    -888.96795363 Ry
     Harris-Foulkes estimate   =    -889.05715979 Ry
     estimated scf accuracy    <       0.29677896 Ry

     iteration #  3     ecut=    60.00 Ry     beta=0.70
     Davidson diagonalization with overlap
     ethr =  6.03E-05,  avg # of iterations =  6.0

     total cpu time spent up to now is      429.3 secs

     total energy              =    -888.97905076 Ry
     Harris-Foulkes estimate   =    -889.02644922 Ry
     estimated scf accuracy    <       1.01172676 Ry

     iteration #  4     ecut=    60.00 Ry     beta=0.70
     Davidson diagonalization with overlap
     ethr =  6.03E-05,  avg # of iterations =  8.8

     total cpu time spent up to now is      437.8 secs

     total energy              =    -888.99878704 Ry
     Harris-Foulkes estimate   =    -889.00514138 Ry
     estimated scf accuracy    <       0.13334953 Ry

     iteration #  5     ecut=    60.00 Ry     beta=0.70
     Davidson diagonalization with overlap
     ethr =  6.03E-05,  avg # of iterations =  1.9

     total cpu time spent up to now is      444.5 secs

     total energy              =    -888.99993764 Ry
     Harris-Foulkes estimate   =    -889.00493274 Ry
     estimated scf accuracy    <       0.08948181 Ry

     iteration #  6     ecut=    60.00 Ry     beta=0.70
     Davidson diagonalization with overlap
     ethr =  6.03E-05,  avg # of iterations =  1.0

     total cpu time spent up to now is      451.0 secs

     total energy              =    -889.00166824 Ry
     Harris-Foulkes estimate   =    -889.00214971 Ry
     estimated scf accuracy    <       0.00957137 Ry

     iteration #  7     ecut=    60.00 Ry     beta=0.70
     Davidson diagonalization with overlap
     ethr =  1.28E-05,  avg # of iterations =  4.7

     total cpu time spent up to now is      458.3 secs

     total energy              =    -889.00143282 Ry
     Harris-Foulkes estimate   =    -889.00174147 Ry
     estimated scf accuracy    <       0.00619280 Ry

     iteration #  8     ecut=    60.00 Ry     beta=0.70
     Davidson diagonalization with overlap
     ethr =  8.26E-06,  avg # of iterations =  2.4

     total cpu time spent up to now is      465.2 secs

     total energy              =    -889.00124172 Ry
     Harris-Foulkes estimate   =    -889.00146807 Ry
     estimated scf accuracy    <       0.00462708 Ry

     iteration #  9     ecut=    60.00 Ry     beta=0.70
     Davidson diagonalization with overlap
     ethr =  6.17E-06,  avg # of iterations =  1.5

     total cpu time spent up to now is      471.8 secs

     total energy              =    -889.00086907 Ry
     Harris-Foulkes estimate   =    -889.00126831 Ry
     estimated scf accuracy    <       0.00348145 Ry

     iteration # 10     ecut=    60.00 Ry     beta=0.70
     Davidson diagonalization with overlap
     ethr =  4.64E-06,  avg # of iterations =  3.6

     total cpu time spent up to now is      479.0 secs

     total energy              =    -889.00047307 Ry
     Harris-Foulkes estimate   =    -889.00095075 Ry
     estimated scf accuracy    <       0.00149649 Ry

     iteration # 11     ecut=    60.00 Ry     beta=0.70
     Davidson diagonalization with overlap
     ethr =  2.00E-06,  avg # of iterations =  6.5

     total cpu time spent up to now is      488.3 secs

     total energy              =    -889.00070043 Ry
     Harris-Foulkes estimate   =    -889.00074114 Ry
     estimated scf accuracy    <       0.00019266 Ry

     iteration # 12     ecut=    60.00 Ry     beta=0.70
     Davidson diagonalization with overlap
     ethr =  2.57E-07,  avg # of iterations =  3.0

     total cpu time spent up to now is      495.8 secs

     total energy              =    -889.00071144 Ry
     Harris-Foulkes estimate   =    -889.00072853 Ry
     estimated scf accuracy    <       0.00020827 Ry

     iteration # 13     ecut=    60.00 Ry     beta=0.70
     Davidson diagonalization with overlap
     ethr =  2.57E-07,  avg # of iterations =  2.0

     total cpu time spent up to now is      502.6 secs

     total energy              =    -889.00072127 Ry
     Harris-Foulkes estimate   =    -889.00072568 Ry
     estimated scf accuracy    <       0.00001429 Ry

     iteration # 14     ecut=    60.00 Ry     beta=0.70
     Davidson diagonalization with overlap
     ethr =  1.91E-08,  avg # of iterations =  3.0

     total cpu time spent up to now is      510.8 secs

     total energy              =    -889.00072317 Ry
     Harris-Foulkes estimate   =    -889.00072504 Ry
     estimated scf accuracy    <       0.00004492 Ry

     iteration # 15     ecut=    60.00 Ry     beta=0.70
     Davidson diagonalization with overlap
     ethr =  1.91E-08,  avg # of iterations =  1.9

     total cpu time spent up to now is      517.5 secs

     total energy              =    -889.00072413 Ry
     Harris-Foulkes estimate   =    -889.00072452 Ry
     estimated scf accuracy    <       0.00000418 Ry

     iteration # 16     ecut=    60.00 Ry     beta=0.70
     Davidson diagonalization with overlap
     ethr =  5.57E-09,  avg # of iterations =  1.6

     total cpu time spent up to now is      524.1 secs

     total energy              =    -889.00072424 Ry
     Harris-Foulkes estimate   =    -889.00072432 Ry
     estimated scf accuracy    <       0.00000020 Ry

     iteration # 17     ecut=    60.00 Ry     beta=0.70
     Davidson diagonalization with overlap
     ethr =  2.63E-10,  avg # of iterations =  4.0

     total cpu time spent up to now is      533.9 secs

     total energy              =    -889.00072429 Ry
     Harris-Foulkes estimate   =    -889.00072433 Ry
     estimated scf accuracy    <       0.00000038 Ry

     iteration # 18     ecut=    60.00 Ry     beta=0.70
     Davidson diagonalization with overlap
     ethr =  2.63E-10,  avg # of iterations =  2.0

     total cpu time spent up to now is      540.6 secs

     total energy              =    -889.00072424 Ry
     Harris-Foulkes estimate   =    -889.00072430 Ry
     estimated scf accuracy    <       0.00000013 Ry

     iteration # 19     ecut=    60.00 Ry     beta=0.70
     Davidson diagonalization with overlap
     ethr =  1.77E-10,  avg # of iterations =  3.5

     total cpu time spent up to now is      548.8 secs

     total energy              =    -889.00072427 Ry
     Harris-Foulkes estimate   =    -889.00072429 Ry
     estimated scf accuracy    <       0.00000005 Ry

     iteration # 20     ecut=    60.00 Ry     beta=0.70
     Davidson diagonalization with overlap
     ethr =  7.25E-11,  avg # of iterations =  4.0

     total cpu time spent up to now is      556.6 secs

     total energy              =    -889.00072428 Ry
     Harris-Foulkes estimate   =    -889.00072429 Ry
     estimated scf accuracy    <       0.00000002 Ry

     iteration # 21     ecut=    60.00 Ry     beta=0.70
     Davidson diagonalization with overlap
     ethr =  2.67E-11,  avg # of iterations =  3.0

     total cpu time spent up to now is      563.8 secs

     total energy              =    -889.00072428 Ry
     Harris-Foulkes estimate   =    -889.00072428 Ry
     estimated scf accuracy    <          1.6E-09 Ry

     iteration # 22     ecut=    60.00 Ry     beta=0.70
     Davidson diagonalization with overlap
     ethr =  2.11E-12,  avg # of iterations =  3.0

     total cpu time spent up to now is      571.6 secs

     End of self-consistent calculation

          k = 0.0189 0.0327 0.0026 ( 14352 PWs)   bands (ev):

   -36.1704 -36.1682 -36.1661 -36.1037 -36.1015 -36.0995 -17.5286 -17.5263
   -17.5242 -17.2455 -17.2432 -17.2411 -17.1825 -17.1802 -17.1781 -17.0815
   -17.0793 -17.0772 -17.0421 -17.0399 -17.0378 -17.0327 -17.0305 -17.0284
    -8.0808  -8.0767  -8.0729   1.4316   1.4387   1.4574   1.8261   1.8437
     1.8510   2.5801   2.5843   2.5882   4.1352   4.2821   4.3580   5.0912
     5.2125   5.4944   6.4114   6.4292   6.5128   7.4220

          k = 0.0189 0.0327 0.0077 ( 14360 PWs)   bands (ev):

   -36.1704 -36.1682 -36.1661 -36.1037 -36.1015 -36.0995 -17.5286 -17.5263
   -17.5242 -17.2455 -17.2432 -17.2411 -17.1825 -17.1802 -17.1781 -17.0815
   -17.0793 -17.0772 -17.0421 -17.0399 -17.0378 -17.0327 -17.0305 -17.0284
    -8.0808  -8.0767  -8.0729   1.4283   1.4459   1.4535   1.8296   1.8373
     1.8539   2.5800   2.5843   2.5881   4.1617   4.2126   4.4141   5.0098
     5.3371   5.4380   6.4030   6.4559   6.4882   7.4869

          k = 0.0189 0.0763 0.0026 ( 14435 PWs)   bands (ev):

   -36.1242 -36.1220 -36.1199 -36.0969 -36.0947 -36.0927 -17.5749 -17.5725
   -17.5704 -17.4423 -17.4400 -17.4379 -17.2542 -17.2519 -17.2497 -17.1766
   -17.1744 -17.1724 -17.0834 -17.0812 -17.0791 -17.0650 -17.0629 -17.0608
    -7.9049  -7.9008  -7.8971   1.3817   1.3858   1.3901   2.3066   2.3100
     2.3133   2.4623   2.4664   2.4701   5.5095   5.5438   5.5930   5.7359
     5.9198   5.9204   6.1709   6.2013   6.2862   7.1802

          k = 0.0189 0.0763 0.0077 ( 14429 PWs)   bands (ev):

   -36.1242 -36.1220 -36.1199 -36.0969 -36.0947 -36.0927 -17.5749 -17.5725
   -17.5704 -17.4423 -17.4400 -17.4379 -17.2542 -17.2519 -17.2497 -17.1766
   -17.1744 -17.1724 -17.0834 -17.0812 -17.0791 -17.0650 -17.0629 -17.0608
    -7.9049  -7.9008  -7.8971   1.3817   1.3859   1.3900   2.3065   2.3101
     2.3133   2.4623   2.4664   2.4701   5.5194   5.5265   5.6020   5.7431
     5.8609   5.9841   6.1453   6.2095   6.2901   7.1567

          k = 0.0189-0.0545 0.0026 ( 14407 PWs)   bands (ev):

   -36.1454 -36.1432 -36.1411 -36.0977 -36.0955 -36.0935 -17.5340 -17.5316
   -17.5295 -17.3693 -17.3670 -17.3649 -17.2435 -17.2412 -17.2391 -17.1357
   -17.1335 -17.1314 -17.0746 -17.0724 -17.0703 -17.0421 -17.0399 -17.0378
    -7.9710  -7.9669  -7.9631   1.5204   1.5252   1.5333   1.9843   1.9921
     1.9967   2.5149   2.5191   2.5229   4.8491   4.9115   5.0243   5.4850
     5.6232   5.6985   6.0302   6.1517   6.2985   7.2323

          k = 0.0189-0.0545 0.0077 ( 14417 PWs)   bands (ev):

   -36.1454 -36.1432 -36.1411 -36.0977 -36.0955 -36.0935 -17.5340 -17.5316
   -17.5295 -17.3693 -17.3670 -17.3649 -17.2435 -17.2412 -17.2391 -17.1357
   -17.1335 -17.1314 -17.0746 -17.0724 -17.0703 -17.0421 -17.0399 -17.0378
    -7.9710  -7.9669  -7.9631   1.5194   1.5271   1.5323   1.9843   1.9923
     1.9966   2.5149   2.5191   2.5229   4.8361   4.9614   4.9821   5.5014
     5.6454   5.6611   6.0112   6.2186   6.2543   7.2361

          k = 0.0189-0.0109 0.0026 ( 14324 PWs)   bands (ev):

   -36.1867 -36.1844 -36.1823 -36.1092 -36.1070 -36.1050 -17.5458 -17.5435
   -17.5414 -17.1556 -17.1534 -17.1512 -17.0950 -17.0928 -17.0906 -17.0609
   -17.0586 -17.0566 -17.0333 -17.0311 -17.0291 -17.0145 -17.0123 -17.0102
    -8.1702  -8.1661  -8.1622   1.0424   1.0527   1.0751   2.1706   2.1991
     2.2062   2.6023   2.6065   2.6103   3.6337   3.8146   3.9995   4.6330
     4.9246   5.4016   6.9923   7.0132   7.0501   7.1246

          k = 0.0189-0.0109 0.0077 ( 14329 PWs)   bands (ev):

   -36.1867 -36.1844 -36.1823 -36.1092 -36.1070 -36.1050 -17.5458 -17.5435
   -17.5414 -17.1556 -17.1534 -17.1512 -17.0950 -17.0928 -17.0906 -17.0609
   -17.0586 -17.0566 -17.0333 -17.0311 -17.0291 -17.0145 -17.0123 -17.0102
    -8.1702  -8.1661  -8.1622   1.0383   1.0621   1.0698   2.1754   2.1889
     2.2116   2.6023   2.6065   2.6103   3.6786   3.7163   4.1100   4.4815
     5.1412   5.2687   6.9872   7.0075   7.0437   7.2496

          k = 0.0566 0.0981 0.0026 ( 14401 PWs)   bands (ev):

   -36.1121 -36.1099 -36.1078 -36.0999 -36.0977 -36.0957 -17.5261 -17.5238
   -17.5216 -17.4158 -17.4135 -17.4114 -17.3601 -17.3578 -17.3556 -17.2035
   -17.2013 -17.1992 -17.1005 -17.0983 -17.0962 -17.0783 -17.0761 -17.0740
    -7.8742  -7.8702  -7.8664   1.6700   1.6741   1.6779   2.1114   2.1154
     2.1192   2.3750   2.3783   2.3814   5.8894   5.9361   5.9635   6.1217
     6.1621   6.2773   6.2995   6.3129   6.3165   7.1963

          k = 0.0566 0.0981 0.0077 ( 14395 PWs)   bands (ev):

   -36.1121 -36.1099 -36.1078 -36.0999 -36.0977 -36.0957 -17.5261 -17.5238
   -17.5216 -17.4158 -17.4135 -17.4114 -17.3601 -17.3578 -17.3556 -17.2035
   -17.2013 -17.1992 -17.1005 -17.0983 -17.0962 -17.0783 -17.0761 -17.0740
    -7.8742  -7.8702  -7.8664   1.6700   1.6741   1.6779   2.1114   2.1154
     2.1192   2.3750   2.3783   2.3814   5.8975   5.9134   5.9874   6.0911
     6.2041   6.2443   6.2910   6.3243   6.3265   7.2179

          k = 0.0566-0.0327 0.0026 ( 14428 PWs)   bands (ev):

   -36.1372 -36.1350 -36.1328 -36.0969 -36.0946 -36.0926 -17.5664 -17.5640
   -17.5618 -17.4279 -17.4256 -17.4235 -17.1893 -17.1871 -17.1850 -17.1845
   -17.1823 -17.1801 -17.0649 -17.0627 -17.0606 -17.0453 -17.0431 -17.0410
    -7.9450  -7.9410  -7.9372   1.3210   1.3252   1.3317   2.1776   2.1812
     2.1852   2.6196   2.6238   2.6275   5.0641   5.1780   5.2563   5.5505
     5.5642   5.7278   5.9606   5.9851   6.0685   7.4006

          k = 0.0566-0.0327 0.0077 ( 14438 PWs)   bands (ev):

   -36.1372 -36.1350 -36.1328 -36.0969 -36.0946 -36.0926 -17.5664 -17.5640
   -17.5618 -17.4279 -17.4256 -17.4235 -17.1893 -17.1871 -17.1850 -17.1845
   -17.1823 -17.1801 -17.0649 -17.0627 -17.0606 -17.0453 -17.0431 -17.0410
    -7.9450  -7.9410  -7.9372   1.3206   1.3260   1.3313   2.1775   2.1812
     2.1851   2.6196   2.6238   2.6275   5.0599   5.1904   5.2529   5.4911
     5.6536   5.6954   5.9321   6.0268   6.0529   7.3966

          k =-0.0189 0.0763-0.0026 ( 14435 PWs)   bands (ev):

   -36.1242 -36.1220 -36.1199 -36.0969 -36.0947 -36.0927 -17.5749 -17.5725
   -17.5704 -17.4423 -17.4400 -17.4379 -17.2542 -17.2519 -17.2497 -17.1766
   -17.1744 -17.1724 -17.0834 -17.0812 -17.0791 -17.0650 -17.0629 -17.0608
    -7.9049  -7.9008  -7.8971   1.3816   1.3860   1.3900   2.3066   2.3100
     2.3133   2.4623   2.4664   2.4701   5.5081   5.5642   5.5664   5.7633
     5.8513   5.9818   6.1290   6.2476   6.2692   7.2189

          k =-0.0189 0.0763-0.0077 ( 14429 PWs)   bands (ev):

   -36.1242 -36.1220 -36.1199 -36.0969 -36.0947 -36.0927 -17.5749 -17.5725
   -17.5704 -17.4423 -17.4400 -17.4379 -17.2542 -17.2519 -17.2497 -17.1766
   -17.1744 -17.1724 -17.0834 -17.0812 -17.0791 -17.0650 -17.0629 -17.0608
    -7.9049  -7.9008  -7.8971   1.3816   1.3860   1.3900   2.3065   2.3101
     2.3133   2.4623   2.4664   2.4701   5.5141   5.5386   5.5873   5.7880
     5.8075   6.0205   6.1043   6.2427   6.2778   7.1701

          k =-0.0189-0.0545-0.0026 ( 14407 PWs)   bands (ev):

   -36.1454 -36.1432 -36.1411 -36.0977 -36.0955 -36.0935 -17.5340 -17.5316
   -17.5295 -17.3693 -17.3670 -17.3649 -17.2435 -17.2412 -17.2391 -17.1357
   -17.1335 -17.1314 -17.0746 -17.0724 -17.0703 -17.0421 -17.0399 -17.0378
    -7.9710  -7.9669  -7.9631   1.5202   1.5254   1.5332   1.9855   1.9899
     1.9978   2.5149   2.5191   2.5229   4.8698   4.8814   5.0345   5.5075
     5.5812   5.7095   6.0871   6.0964   6.3047   7.2233

          k =-0.0189-0.0545-0.0077 ( 14417 PWs)   bands (ev):

   -36.1454 -36.1432 -36.1411 -36.0977 -36.0955 -36.0935 -17.5340 -17.5316
   -17.5295 -17.3693 -17.3670 -17.3649 -17.2435 -17.2412 -17.2391 -17.1357
   -17.1335 -17.1314 -17.0746 -17.0724 -17.0703 -17.0421 -17.0399 -17.0378
    -7.9710  -7.9669  -7.9631   1.5193   1.5274   1.5321   1.9854   1.9900
     1.9977   2.5149   2.5191   2.5229   4.8435   4.9287   5.0082   5.5383
     5.5696   5.6920   6.0362   6.1808   6.2745   7.2238

          k =-0.0189-0.0109-0.0026 ( 14324 PWs)   bands (ev):

   -36.1867 -36.1844 -36.1823 -36.1092 -36.1070 -36.1050 -17.5458 -17.5435
   -17.5414 -17.1556 -17.1534 -17.1512 -17.0950 -17.0928 -17.0906 -17.0609
   -17.0586 -17.0566 -17.0333 -17.0311 -17.0291 -17.0145 -17.0123 -17.0102
    -8.1702  -8.1661  -8.1622   1.0437   1.0510   1.0756   2.1715   2.1957
     2.2086   2.6023   2.6065   2.6103   3.6247   3.8682   3.9411   4.7066
     4.8468   5.4225   6.9972   7.0027   7.0204   7.1608

          k =-0.0189-0.0109-0.0077 ( 14329 PWs)   bands (ev):

   -36.1867 -36.1844 -36.1823 -36.1092 -36.1070 -36.1050 -17.5458 -17.5435
   -17.5414 -17.1556 -17.1534 -17.1512 -17.0950 -17.0928 -17.0906 -17.0609
   -17.0586 -17.0566 -17.0333 -17.0311 -17.0291 -17.0145 -17.0123 -17.0102
    -8.1702  -8.1661  -8.1622   1.0388   1.0603   1.0711   2.1778   2.1855
     2.2126   2.6023   2.6065   2.6103   3.6524   3.7579   4.0731   4.5235
     5.0696   5.3225   6.9854   7.0025   7.0299   7.2844

          k =-0.0566-0.0327-0.0026 ( 14428 PWs)   bands (ev):

   -36.1372 -36.1350 -36.1328 -36.0969 -36.0946 -36.0926 -17.5664 -17.5640
   -17.5618 -17.4279 -17.4256 -17.4235 -17.1893 -17.1871 -17.1850 -17.1845
   -17.1823 -17.1801 -17.0649 -17.0627 -17.0606 -17.0453 -17.0431 -17.0410
    -7.9450  -7.9410  -7.9372   1.3205   1.3260   1.3313   2.1774   2.1815
     2.1850   2.6197   2.6238   2.6275   5.0893   5.1182   5.3197   5.4734
     5.6053   5.7429   5.9417   5.9942   6.0703   7.4330

          k =-0.0566-0.0327-0.0077 ( 14438 PWs)   bands (ev):

   -36.1372 -36.1350 -36.1328 -36.0969 -36.0946 -36.0926 -17.5664 -17.5640
   -17.5618 -17.4279 -17.4256 -17.4235 -17.1893 -17.1871 -17.1850 -17.1845
   -17.1823 -17.1801 -17.0649 -17.0627 -17.0606 -17.0453 -17.0431 -17.0410
    -7.9450  -7.9410  -7.9372   1.3202   1.3268   1.3309   2.1774   2.1815
     2.1850   2.6197   2.6238   2.6275   5.0781   5.1328   5.3267   5.4399
     5.6538   5.7202   5.9205   6.0266   6.0563   7.4209

     the Fermi energy is     4.9901 ev

* XDM dispersion
  a1 =     0.651200
  a2 (ang) =     1.463300
  a2 (bohr) =     2.765236

+ van der Waals energies, forces and stresses (Ry,bohr)
  Evdw(total,Ry)   =  -4.012015351049E-01
  Evdw(C6,Ry)      =  -1.400337292884E-01
  Evdw(C8,Ry)      =  -1.228669808429E-01
  Evdw(C10,Ry)     =  -1.383008249736E-01
  Fvdw (001,Ry/bohr) =   2.077322224974E-09   2.435680132041E-09   4.228570268418E-03
  Fvdw (002,Ry/bohr) =  -3.405234875780E-09   2.256830190740E-09   4.228980281403E-03
  Fvdw (003,Ry/bohr) =   1.205099778143E-09  -4.564163254974E-09   4.228722447534E-03
  Fvdw (004,Ry/bohr) =   3.405217738743E-09  -1.213916818396E-10  -4.228711139219E-03
  Fvdw (005,Ry/bohr) =  -1.628470011712E-09   5.160371590433E-09  -4.228901667177E-03
  Fvdw (006,Ry/bohr) =  -7.558199603893E-10  -4.070214520580E-09  -4.228705040534E-03
  Fvdw (007,Ry/bohr) =   3.450379128790E-10  -5.384131207703E-10  -4.301771027434E-08
  Fvdw (008,Ry/bohr) =  -1.243121491612E-09   1.575616342987E-09   1.944865939752E-08
  Fvdw (009,Ry/bohr) =  -3.129810673712E-14  -2.134315687426E-09   6.841862489027E-08
  sigma_vdw (Ry/bohr**3) =  -2.146956861096E-04   2.668249044052E-11   1.826280573077E-12  
                             2.668249044052E-11  -2.146956461550E-04   8.912115730350E-13  
                             1.826280573077E-12   8.912115730350E-13  -1.228903177399E-04  
  sigma_vdw (GPa) =  -3.158282050272E+00   3.925129197603E-07   2.686551023556E-08  
                      3.925129197603E-07  -3.158281462518E+00   1.311017265933E-08  
                      2.686551023556E-08   1.311017265933E-08  -1.807778682949E+00  


!    total energy              =    -889.40192582 Ry
     Harris-Foulkes estimate   =    -889.40192582 Ry
     estimated scf accuracy    <          9.2E-11 Ry

     total all-electron energy =     -8496.884242 Ry

     The total energy is the sum of the following terms:

     one-electron contribution =    -575.32353639 Ry
     hartree contribution      =     309.21759688 Ry
     xc contribution           =    -122.08283042 Ry
     ewald contribution        =    -142.14802654 Ry
     Dispersion XDM Correction =      -0.40120154 Ry
     one-center paw contrib.   =    -358.66279793 Ry
     smearing contrib. (-TS)   =      -0.00112987 Ry

     convergence has been achieved in  22 iterations

     Forces acting on atoms (Ry/au):

     atom    1 type  2   force =    -0.00000000   -0.00000000   -0.01552346
     atom    2 type  2   force =    -0.00000000    0.00000000   -0.01551977
     atom    3 type  2   force =    -0.00000000    0.00000000   -0.01550372
     atom    4 type  2   force =     0.00000000    0.00000000    0.01552346
     atom    5 type  2   force =     0.00000000   -0.00000000    0.01550372
     atom    6 type  2   force =     0.00000000   -0.00000000    0.01551977
     atom    7 type  1   force =     0.00000000   -0.00000000    0.00000000
     atom    8 type  1   force =    -0.00000000   -0.00000000   -0.00000404
     atom    9 type  1   force =     0.00000000    0.00000000    0.00000404

     Total force =     0.000000     Total SCF correction =     0.000000


     entering subroutine stress ...

          total   stress  (Ry/bohr**3)                   (kbar)     P=   -2.52
   0.00005493   0.00000000   0.00000000          8.08      0.00      0.00
   0.00000000   0.00005493  -0.00000000          0.00      8.08     -0.00
  -0.00000000   0.00000000  -0.00016131         -0.00      0.00    -23.73


     number of scf cycles    =   3
     number of bfgs steps    =   2

     enthalpy old            =    -889.4013136672 Ry
     enthalpy new            =    -889.4019258157 Ry

     CASE: enthalpy_new < enthalpy_old

     new trust radius        =       0.0329348106 bohr
     new conv_thr            =            1.0E-10 Ry

[...]
   -17.2211 -17.2190 -17.1852 -17.1831 -17.1810 -17.1779 -17.1758 -17.1737
    -8.1666  -8.1625  -8.1587   1.3598   1.3780   1.3858   1.7465   1.7542
     1.7708   2.4910   2.4953   2.4990   4.0665   4.1187   4.3276   4.9157
     5.2522   5.3552   6.2961   6.3491   6.3817   7.3947

          k = 0.0187 0.0757 0.0026 ( 14761 PWs)   bands (ev):

   -36.2675 -36.2654 -36.2633 -36.2412 -36.2391 -36.2371 -17.6900 -17.6877
   -17.6855 -17.5680 -17.5657 -17.5636 -17.3899 -17.3876 -17.3855 -17.3121
   -17.3100 -17.3080 -17.2245 -17.2224 -17.2203 -17.2081 -17.2060 -17.2039
    -7.9923  -7.9883  -7.9846   1.3052   1.3093   1.3135   2.2314   2.2348
     2.2381   2.3769   2.3809   2.3845   5.4118   5.4395   5.5002   5.6231
     5.8108   5.8251   6.0738   6.0984   6.1869   7.0539

          k = 0.0187 0.0757 0.0077 ( 14772 PWs)   bands (ev):

   -36.2675 -36.2654 -36.2633 -36.2412 -36.2391 -36.2371 -17.6900 -17.6877
   -17.6855 -17.5680 -17.5657 -17.5636 -17.3899 -17.3876 -17.3855 -17.3121
   -17.3100 -17.3080 -17.2245 -17.2224 -17.2203 -17.2081 -17.2060 -17.2039
    -7.9923  -7.9883  -7.9846   1.3052   1.3093   1.3134   2.2314   2.2349
     2.2381   2.3769   2.3809   2.3845   5.4226   5.4242   5.5035   5.6372
     5.7493   5.8901   6.0405   6.1117   6.1905   7.0294

          k = 0.0187-0.0541 0.0026 ( 14761 PWs)   bands (ev):

   -36.2873 -36.2851 -36.2830 -36.2415 -36.2393 -36.2373 -17.6549 -17.6526
   -17.6505 -17.4982 -17.4959 -17.4938 -17.3789 -17.3766 -17.3745 -17.2735
   -17.2713 -17.2693 -17.2157 -17.2136 -17.2115 -17.1868 -17.1846 -17.1826
    -8.0583  -8.0542  -8.0505   1.4419   1.4465   1.4548   1.9076   1.9157
     1.9205   2.4287   2.4329   2.4366   4.7510   4.8169   4.9237   5.3966
     5.5251   5.6006   5.9321   6.0479   6.2042   7.1183

          k = 0.0187-0.0541 0.0077 ( 14752 PWs)   bands (ev):

   -36.2873 -36.2851 -36.2830 -36.2415 -36.2393 -36.2373 -17.6549 -17.6526
   -17.6505 -17.4982 -17.4959 -17.4938 -17.3789 -17.3766 -17.3745 -17.2735
   -17.2713 -17.2693 -17.2157 -17.2136 -17.2115 -17.1868 -17.1846 -17.1826
    -8.0583  -8.0542  -8.0505   1.4409   1.4485   1.4538   1.9075   1.9161
     1.9203   2.4287   2.4329   2.4366   4.7392   4.8664   4.8812   5.4113
     5.5518   5.5610   5.9085   6.1169   6.1615   7.1122

          k = 0.0187-0.0108 0.0026 ( 14747 PWs)   bands (ev):

   -36.3256 -36.3235 -36.3214 -36.2512 -36.2491 -36.2471 -17.6692 -17.6669
   -17.6648 -17.2967 -17.2945 -17.2924 -17.2391 -17.2369 -17.2348 -17.2032
   -17.2010 -17.1989 -17.1786 -17.1764 -17.1744 -17.1597 -17.1575 -17.1555
    -8.2538  -8.2497  -8.2459   0.9815   0.9920   1.0151   2.0847   2.1129
     2.1202   2.5118   2.5160   2.5197   3.5397   3.7252   3.9112   4.5436
     4.8371   5.3239   6.8795   6.8972   6.9361   7.0343

          k = 0.0187-0.0108 0.0077 ( 14745 PWs)   bands (ev):

   -36.3256 -36.3235 -36.3214 -36.2512 -36.2491 -36.2471 -17.6692 -17.6669
   -17.6648 -17.2967 -17.2945 -17.2924 -17.2391 -17.2369 -17.2348 -17.2032
   -17.2010 -17.1989 -17.1786 -17.1764 -17.1744 -17.1597 -17.1575 -17.1555
    -8.2538  -8.2497  -8.2459   0.9772   1.0017   1.0096   2.0895   2.1027
     2.1255   2.5118   2.5160   2.5197   3.5849   3.6250   4.0271   4.3862
     5.0571   5.1891   6.8763   6.8920   6.9266   7.1647

          k = 0.0562 0.0974 0.0026 ( 14756 PWs)   bands (ev):

   -36.2561 -36.2540 -36.2518 -36.2444 -36.2422 -36.2402 -17.6434 -17.6411
   -17.6389 -17.5441 -17.5418 -17.5397 -17.4904 -17.4881 -17.4860 -17.3348
   -17.3327 -17.3306 -17.2406 -17.2385 -17.2365 -17.2210 -17.2189 -17.2168
    -7.9623  -7.9583  -7.9547   1.5896   1.5937   1.5974   2.0288   2.0328
     2.0365   2.3002   2.3035   2.3065   5.7745   5.8223   5.8504   6.0111
     6.0528   6.1693   6.1992   6.2126   6.2174   7.0863

          k = 0.0562 0.0974 0.0077 ( 14770 PWs)   bands (ev):

   -36.2561 -36.2540 -36.2518 -36.2444 -36.2422 -36.2402 -17.6434 -17.6411
   -17.6390 -17.5441 -17.5418 -17.5397 -17.4904 -17.4881 -17.4860 -17.3348
   -17.3327 -17.3306 -17.2406 -17.2385 -17.2365 -17.2210 -17.2189 -17.2169
    -7.9623  -7.9583  -7.9547   1.5896   1.5937   1.5974   2.0288   2.0328
     2.0365   2.3002   2.3035   2.3065   5.7828   5.7991   5.8752   5.9793
     6.0960   6.1370   6.1906   6.2241   6.2264   7.1081

          k = 0.0562-0.0325 0.0026 ( 14765 PWs)   bands (ev):

   -36.2796 -36.2775 -36.2754 -36.2409 -36.2387 -36.2367 -17.6833 -17.6809
   -17.6788 -17.5543 -17.5520 -17.5499 -17.3239 -17.3236 -17.3217 -17.3214
   -17.3197 -17.3193 -17.2095 -17.2073 -17.2053 -17.1876 -17.1855 -17.1834
    -8.0321  -8.0281  -8.0244   1.2468   1.2510   1.2575   2.1013   2.1048
     2.1090   2.5301   2.5341   2.5378   4.9703   5.0830   5.1555   5.4465
     5.4808   5.6252   5.8558   5.8934   5.9784   7.2713

          k = 0.0562-0.0325 0.0077 ( 14777 PWs)   bands (ev):

   -36.2796 -36.2775 -36.2754 -36.2409 -36.2387 -36.2367 -17.6833 -17.6809
   -17.6788 -17.5543 -17.5520 -17.5499 -17.3239 -17.3236 -17.3217 -17.3214
   -17.3197 -17.3193 -17.2095 -17.2073 -17.2053 -17.1876 -17.1855 -17.1834
    -8.0321  -8.0281  -8.0244   1.2463   1.2518   1.2571   2.1012   2.1050
     2.1089   2.5301   2.5341   2.5378   4.9663   5.0929   5.1562   5.3914
     5.5704   5.5896   5.8242   5.9381   5.9600   7.2663

          k =-0.0187 0.0757-0.0026 ( 14761 PWs)   bands (ev):

   -36.2675 -36.2654 -36.2633 -36.2412 -36.2391 -36.2371 -17.6900 -17.6877
   -17.6855 -17.5680 -17.5657 -17.5636 -17.3899 -17.3876 -17.3855 -17.3121
   -17.3100 -17.3080 -17.2245 -17.2224 -17.2203 -17.2081 -17.2060 -17.2039
    -7.9923  -7.9883  -7.9846   1.3051   1.3094   1.3134   2.2314   2.2348
     2.2381   2.3769   2.3809   2.3845   5.4085   5.4603   5.4731   5.6494
     5.7548   5.8752   6.0318   6.1463   6.1702   7.0924

          k =-0.0187 0.0757-0.0077 ( 14772 PWs)   bands (ev):

   -36.2675 -36.2654 -36.2633 -36.2412 -36.2391 -36.2371 -17.6900 -17.6877
   -17.6855 -17.5680 -17.5657 -17.5636 -17.3899 -17.3876 -17.3855 -17.3121
   -17.3100 -17.3080 -17.2245 -17.2224 -17.2203 -17.2081 -17.2060 -17.2039
    -7.9923  -7.9883  -7.9846   1.3051   1.3095   1.3134   2.2313   2.2349
     2.2381   2.3769   2.3809   2.3845   5.4126   5.4445   5.4841   5.6884
     5.6945   5.9220   6.0018   6.1442   6.1775   7.0427

          k =-0.0187-0.0541-0.0026 ( 14761 PWs)   bands (ev):

   -36.2873 -36.2851 -36.2830 -36.2415 -36.2393 -36.2373 -17.6549 -17.6526
   -17.6505 -17.4982 -17.4959 -17.4938 -17.3789 -17.3766 -17.3745 -17.2735
   -17.2713 -17.2693 -17.2157 -17.2136 -17.2115 -17.1868 -17.1846 -17.1826
    -8.0583  -8.0542  -8.0505   1.4416   1.4469   1.4546   1.9090   1.9133
     1.9217   2.4287   2.4329   2.4366   4.7749   4.7821   4.9358   5.4189
     5.4856   5.6087   5.9821   6.0022   6.2082   7.1065

          k =-0.0187-0.0541-0.0077 ( 14752 PWs)   bands (ev):

   -36.2873 -36.2851 -36.2830 -36.2415 -36.2393 -36.2373 -17.6549 -17.6526
   -17.6505 -17.4982 -17.4959 -17.4938 -17.3789 -17.3766 -17.3745 -17.2735
   -17.2713 -17.2693 -17.2157 -17.2136 -17.2115 -17.1868 -17.1846 -17.1826
    -8.0583  -8.0542  -8.0505   1.4407   1.4489   1.4535   1.9088   1.9136
     1.9216   2.4287   2.4329   2.4366   4.7476   4.8285   4.9118   5.4455
     5.4790   5.5908   5.9312   6.0882   6.1754   7.1052

          k =-0.0187-0.0108-0.0026 ( 14747 PWs)   bands (ev):

   -36.3256 -36.3235 -36.3214 -36.2512 -36.2491 -36.2471 -17.6692 -17.6669
   -17.6648 -17.2967 -17.2945 -17.2924 -17.2391 -17.2369 -17.2348 -17.2032
   -17.2010 -17.1989 -17.1786 -17.1764 -17.1744 -17.1597 -17.1575 -17.1555
    -8.2538  -8.2497  -8.2459   0.9827   0.9902   1.0156   2.0855   2.1098
     2.1224   2.5118   2.5160   2.5196   3.5311   3.7769   3.8544   4.6155
     4.7614   5.3444   6.8833   6.8976   6.9041   7.0606

          k =-0.0187-0.0108-0.0077 ( 14745 PWs)   bands (ev):

   -36.3256 -36.3235 -36.3214 -36.2512 -36.2491 -36.2471 -17.6692 -17.6669
   -17.6648 -17.2967 -17.2945 -17.2924 -17.2391 -17.2369 -17.2348 -17.2032
   -17.2010 -17.1989 -17.1786 -17.1764 -17.1744 -17.1597 -17.1575 -17.1555
    -8.2538  -8.2497  -8.2459   0.9777   0.9999   1.0109   2.0917   2.0996
     2.1264   2.5118   2.5160   2.5196   3.5596   3.6650   3.9902   4.4282
     4.9873   5.2418   6.8776   6.8876   6.9132   7.1883

          k =-0.0562-0.0325-0.0026 ( 14765 PWs)   bands (ev):

   -36.2796 -36.2775 -36.2754 -36.2409 -36.2387 -36.2367 -17.6833 -17.6809
   -17.6788 -17.5543 -17.5520 -17.5499 -17.3239 -17.3236 -17.3217 -17.3214
   -17.3197 -17.3193 -17.2095 -17.2073 -17.2053 -17.1876 -17.1855 -17.1834
    -8.0321  -8.0281  -8.0244   1.2464   1.2518   1.2571   2.1011   2.1052
     2.1088   2.5301   2.5342   2.5378   4.9950   5.0239   5.2140   5.3905
     5.4993   5.6475   5.8434   5.8936   5.9819   7.3049

          k =-0.0562-0.0325-0.0077 ( 14777 PWs)   bands (ev):

   -36.2796 -36.2775 -36.2754 -36.2409 -36.2387 -36.2367 -17.6833 -17.6809
   -17.6788 -17.5543 -17.5520 -17.5499 -17.3239 -17.3236 -17.3217 -17.3214
   -17.3197 -17.3193 -17.2095 -17.2073 -17.2053 -17.1876 -17.1855 -17.1834
    -8.0321  -8.0281  -8.0244   1.2460   1.2526   1.2566   2.1010   2.1054
     2.1087   2.5301   2.5341   2.5378   4.9842   5.0373   5.2232   5.3506
     5.5471   5.6342   5.8138   5.9302   5.9684   7.2903

     the Fermi energy is     4.8940 ev

* XDM dispersion
  a1 =     0.651200
  a2 (ang) =     1.463300
  a2 (bohr) =     2.765236

+ Volumes and moments
# All results in atomic units (Hartree,bohr)
# i        V             Vfree           M1             M2             M3
  1   1.952281E+02   2.097472E+02   1.104236E+01   3.557643E+02   1.732509E+04
  2   1.952252E+02   2.097472E+02   1.104236E+01   3.557584E+02   1.732462E+04
  3   1.952236E+02   2.097472E+02   1.104237E+01   3.557535E+02   1.732421E+04
  4   1.952311E+02   2.097472E+02   1.104258E+01   3.557630E+02   1.732452E+04
  5   1.952341E+02   2.097472E+02   1.104265E+01   3.557724E+02   1.732526E+04
  6   1.952324E+02   2.097472E+02   1.104259E+01   3.557688E+02   1.732510E+04
  7   3.063089E+01   2.988899E+01   4.629730E+00   4.583854E+01   5.987777E+02
  8   3.063033E+01   2.988899E+01   4.629634E+00   4.583742E+01   5.987693E+02
  9   3.063134E+01   2.988899E+01   4.629745E+00   4.583888E+01   5.987805E+02

+ Dispersion coefficients
# All results in atomic units (Hartree,bohr).
# i   j      C6             C8             C10            Rc            Rvdw
  1   1   7.906958E+02   7.642426E+04   8.409449E+06   1.015878E+01   9.380635E+00
  2   1   7.906899E+02   7.642306E+04   8.409261E+06   1.015874E+01   9.380611E+00
  2   2   7.906840E+02   7.642185E+04   8.409073E+06   1.015871E+01   9.380586E+00
  3   1   7.906871E+02   7.642222E+04   8.409118E+06   1.015871E+01   9.380588E+00
  3   2   7.906812E+02   7.642101E+04   8.408930E+06   1.015867E+01   9.380564E+00
  3   3   7.906784E+02   7.642017E+04   8.408787E+06   1.015864E+01   9.380542E+00
  4   1   7.907099E+02   7.642471E+04   8.409385E+06   1.015872E+01   9.380593E+00
  4   2   7.907040E+02   7.642351E+04   8.409197E+06   1.015868E+01   9.380568E+00
  4   3   7.907012E+02   7.642267E+04   8.409054E+06   1.015865E+01   9.380546E+00
  4   4   7.907240E+02   7.642516E+04   8.409321E+06   1.015865E+01   9.380551E+00
  5   1   7.907183E+02   7.642631E+04   8.409636E+06   1.015877E+01   9.380625E+00
  5   2   7.907124E+02   7.642510E+04   8.409448E+06   1.015873E+01   9.380600E+00
  5   3   7.907097E+02   7.642426E+04   8.409305E+06   1.015869E+01   9.380578E+00
  5   4   7.907324E+02   7.642676E+04   8.409572E+06   1.015870E+01   9.380582E+00
  5   5   7.907409E+02   7.642835E+04   8.409822E+06   1.015875E+01   9.380614E+00
  6   1   7.907128E+02   7.642559E+04   8.409551E+06   1.015876E+01   9.380620E+00
  6   2   7.907070E+02   7.642439E+04   8.409363E+06   1.015872E+01   9.380595E+00
  6   3   7.907042E+02   7.642355E+04   8.409220E+06   1.015869E+01   9.380573E+00
  6   4   7.907269E+02   7.642604E+04   8.409487E+06   1.015869E+01   9.380577E+00
  6   5   7.907354E+02   7.642764E+04   8.409738E+06   1.015874E+01   9.380609E+00
  6   6   7.907299E+02   7.642692E+04   8.409654E+06   1.015873E+01   9.380604E+00
  7   1   7.295052E+01   4.608911E+03   3.455195E+05   8.300913E+00   8.170791E+00
  7   2   7.295041E+01   4.608845E+03   3.455110E+05   8.300865E+00   8.170760E+00
  7   3   7.295042E+01   4.608793E+03   3.455039E+05   8.300822E+00   8.170732E+00
  7   4   7.295196E+01   4.608917E+03   3.455118E+05   8.300825E+00   8.170734E+00
  7   5   7.295249E+01   4.609023E+03   3.455247E+05   8.300887E+00   8.170774E+00
  7   6   7.295207E+01   4.608979E+03   3.455213E+05   8.300880E+00   8.170769E+00
  7   7   1.718363E+01   5.104008E+02   1.596446E+04   5.521207E+00   6.360646E+00
  8   1   7.295035E+01   4.608896E+03   3.455184E+05   8.300911E+00   8.170790E+00
  8   2   7.295025E+01   4.608831E+03   3.455100E+05   8.300864E+00   8.170759E+00
  8   3   7.295025E+01   4.608778E+03   3.455029E+05   8.300821E+00   8.170731E+00
  8   4   7.295179E+01   4.608903E+03   3.455108E+05   8.300824E+00   8.170733E+00
  8   5   7.295232E+01   4.609008E+03   3.455236E+05   8.300886E+00   8.170773E+00
  8   6   7.295190E+01   4.608965E+03   3.455203E+05   8.300878E+00   8.170768E+00
  8   7   1.718345E+01   5.103946E+02   1.596430E+04   5.521207E+00   6.360646E+00
  8   8   1.718327E+01   5.103883E+02   1.596414E+04   5.521207E+00   6.360646E+00
  9   1   7.295054E+01   4.608917E+03   3.455200E+05   8.300915E+00   8.170792E+00
  9   2   7.295044E+01   4.608851E+03   3.455116E+05   8.300868E+00   8.170761E+00
  9   3   7.295044E+01   4.608799E+03   3.455045E+05   8.300825E+00   8.170733E+00
  9   4   7.295198E+01   4.608924E+03   3.455123E+05   8.300828E+00   8.170735E+00
  9   5   7.295251E+01   4.609029E+03   3.455252E+05   8.300890E+00   8.170776E+00
  9   6   7.295209E+01   4.608985E+03   3.455219E+05   8.300882E+00   8.170771E+00
  9   7   1.718366E+01   5.104027E+02   1.596452E+04   5.521210E+00   6.360648E+00
  9   8   1.718348E+01   5.103964E+02   1.596436E+04   5.521210E+00   6.360648E+00
  9   9   1.718369E+01   5.104045E+02   1.596458E+04   5.521213E+00   6.360650E+00

+ van der Waals energies, forces and stresses (Ry,bohr)
  Evdw(total,Ry)   =  -4.019887852348E-01
  Evdw(C6,Ry)      =  -1.401331833705E-01
  Evdw(C8,Ry)      =  -1.231871195566E-01
  Evdw(C10,Ry)     =  -1.386684823076E-01
  Fvdw (001,Ry/bohr) =   2.179241723629E-09   2.550334971864E-09   4.198238919238E-03
  Fvdw (002,Ry/bohr) =  -3.526873229472E-09   2.383677193517E-09   4.198588468856E-03
  Fvdw (003,Ry/bohr) =   1.266199837946E-09  -4.739802759178E-09   4.198381473446E-03
  Fvdw (004,Ry/bohr) =   3.526861564407E-09  -1.143225368370E-10  -4.198378976798E-03
  Fvdw (005,Ry/bohr) =  -1.702704975460E-09   5.366218976242E-09  -4.198564195473E-03
  Fvdw (006,Ry/bohr) =  -7.892053807461E-10  -4.277246822607E-09  -4.198308412652E-03
  Fvdw (007,Ry/bohr) =   3.651859734815E-10  -5.752579712908E-10  -4.252160878382E-08
  Fvdw (008,Ry/bohr) =  -1.318663409224E-09   1.672253008747E-09   1.857645674398E-08
  Fvdw (009,Ry/bohr) =  -4.212608438604E-14  -2.265854064039E-09   6.666853596499E-08
  sigma_vdw (Ry/bohr**3) =  -2.109565473617E-04   2.143776170412E-11   1.708277155176E-12  
                             2.143776170412E-11  -2.109565141199E-04   8.380894685920E-13  
                             1.708277155176E-12   8.380894685920E-13  -1.212022803772E-04  
  sigma_vdw (GPa) =  -3.103277429522E+00   3.153603093522E-07   2.512962031909E-08  
                      3.153603093522E-07  -3.103276940518E+00   1.232871965496E-08  
                      2.512962031909E-08   1.232871965496E-08  -1.782946800206E+00  


!    total energy              =    -889.40932072 Ry
     Harris-Foulkes estimate   =    -889.40932072 Ry
     estimated scf accuracy    <          5.0E-11 Ry

     total all-electron energy =     -8496.891637 Ry

     The total energy is the sum of the following terms:

     one-electron contribution =    -571.68754405 Ry
     hartree contribution      =     307.02577048 Ry
     xc contribution           =    -122.00677702 Ry
     ewald contribution        =    -143.67434779 Ry
     Dispersion XDM Correction =      -0.40198879 Ry
     one-center paw contrib.   =    -358.66332790 Ry
     smearing contrib. (-TS)   =      -0.00110565 Ry

     convergence has been achieved in  24 iterations

     Forces acting on atoms (Ry/au):

     atom    1 type  2   force =    -0.00000000   -0.00000000   -0.01253159
     atom    2 type  2   force =    -0.00000000    0.00000000   -0.01254405
     atom    3 type  2   force =    -0.00000000    0.00000000   -0.01252411
     atom    4 type  2   force =    -0.00000000    0.00000000    0.01253159
     atom    5 type  2   force =    -0.00000000    0.00000000    0.01252411
     atom    6 type  2   force =     0.00000000   -0.00000000    0.01254405
     atom    7 type  1   force =    -0.00000000    0.00000000    0.00000000
     atom    8 type  1   force =     0.00000000   -0.00000000   -0.00000418
     atom    9 type  1   force =    -0.00000000    0.00000000    0.00000418

     Total force =     0.000000     Total SCF correction =     0.000000


     entering subroutine stress ...

          total   stress  (Ry/bohr**3)                   (kbar)     P=   -9.31
  -0.00000348  -0.00000000   0.00000000         -0.51     -0.00      0.00
  -0.00000000  -0.00000348   0.00000000         -0.00     -0.51      0.00
   0.00000000   0.00000000  -0.00018300          0.00      0.00    -26.92


     Writing output data file crystal-5.save

     init_run     :      9.63s CPU      9.88s WALL (       2 calls)
     electrons    :   1233.17s CPU   1288.07s WALL (       7 calls)
     update_pot   :     24.85s CPU     25.05s WALL (       5 calls)
     forces       :     26.88s CPU     27.11s WALL (       7 calls)
     stress       :     61.90s CPU     62.60s WALL (       7 calls)

     Called by init_run:
     wfcinit      :      3.18s CPU      3.32s WALL (       2 calls)
     potinit      :      2.33s CPU      2.36s WALL (       2 calls)

     Called by electrons:
     c_bands      :    837.52s CPU    869.69s WALL (     156 calls)
     sum_band     :    317.33s CPU    333.15s WALL (     156 calls)
     v_of_rho     :     10.01s CPU     11.12s WALL (     162 calls)
     newd         :     26.41s CPU     30.05s WALL (     162 calls)
     PAW_pot      :     27.86s CPU     29.20s WALL (     167 calls)
     mix_rho      :      2.14s CPU      2.64s WALL (     156 calls)

     Called by c_bands:
     init_us_2    :      4.69s CPU      5.03s WALL (    6660 calls)
     cegterg      :    819.95s CPU    851.79s WALL (    3120 calls)

     Called by sum_band:
     sum_band:bec :      0.80s CPU      0.82s WALL (    3220 calls)
     addusdens    :     27.43s CPU     31.05s WALL (     156 calls)

     Called by *egterg:
     h_psi        :    444.44s CPU    461.90s WALL (   14242 calls)
     s_psi        :     66.90s CPU     66.83s WALL (   14242 calls)
     g_psi        :      0.95s CPU      0.97s WALL (   11082 calls)
     cdiaghg      :    120.36s CPU    120.34s WALL (   14082 calls)

     Called by h_psi:
     add_vuspsi   :     69.23s CPU     69.23s WALL (   14242 calls)

     General routines
     calbec       :    136.37s CPU    136.31s WALL (   18162 calls)
     fft          :     10.50s CPU     11.44s WALL (    3532 calls)
     ffts         :      0.30s CPU      0.35s WALL (     474 calls)
     fftw         :    443.74s CPU    471.39s WALL ( 1288604 calls)
     interpolate  :      1.52s CPU      2.02s WALL (     474 calls)
     davcio       :      0.00s CPU      0.02s WALL (      40 calls)

     Parallel routines
     fft_scatter  :    112.65s CPU    116.99s WALL ( 1292610 calls)

     PWSCF        : 22m40.45s CPU    23m37.45s WALL


   This run was terminated on:  10:22:18  13Feb2017            

=------------------------------------------------------------------------------=
   JOB DONE.
=------------------------------------------------------------------------------=
