 Entering Gaussian System, Link 0=g09
 Input=co2_co2.gjf
 Output=co2_co2.log
 Initial command:
 /opt/g09/l1.exe /home/stephen/scratch/Gau-6158.inp -scrdir=/home/stephen/scratch/
 Entering Link 1 = /opt/g09/l1.exe PID=      6160.
  
 Copyright (c) 1988,1990,1992,1993,1995,1998,2003,2009,2010,
            Gaussian, Inc.  All Rights Reserved.
  
 This is part of the Gaussian(R) 09 program.  It is based on
 the Gaussian(R) 03 system (copyright 2003, Gaussian, Inc.),
 the Gaussian(R) 98 system (copyright 1998, Gaussian, Inc.),
 the Gaussian(R) 94 system (copyright 1995, Gaussian, Inc.),
 the Gaussian 92(TM) system (copyright 1992, Gaussian, Inc.),
 the Gaussian 90(TM) system (copyright 1990, Gaussian, Inc.),
 the Gaussian 88(TM) system (copyright 1988, Gaussian, Inc.),
 the Gaussian 86(TM) system (copyright 1986, Carnegie Mellon
 University), and the Gaussian 82(TM) system (copyright 1983,
 Carnegie Mellon University). Gaussian is a federally registered
 trademark of Gaussian, Inc.
  
 This software contains proprietary and confidential information,
 including trade secrets, belonging to Gaussian, Inc.
  
 This software is provided under written license and may be
 used, copied, transmitted, or stored only in accord with that
 written license.
  
 The following legend is applicable only to US Government
 contracts under FAR:
  
                    RESTRICTED RIGHTS LEGEND
  
 Use, reproduction and disclosure by the US Government is
 subject to restrictions as set forth in subparagraphs (a)
 and (c) of the Commercial Computer Software - Restricted
 Rights clause in FAR 52.227-19.
  
 Gaussian, Inc.
 340 Quinnipiac St., Bldg. 40, Wallingford CT 06492
  
  
 ---------------------------------------------------------------
 Warning -- This program may not be used in any manner that
 competes with the business of Gaussian, Inc. or will provide
 assistance to any competitor of Gaussian, Inc.  The licensee
 of this program is prohibited from giving any competitor of
 Gaussian, Inc. access to this program.  By using this program,
 the user acknowledges that Gaussian, Inc. is engaged in the
 business of creating and licensing software in the field of
 computational chemistry and represents and warrants to the
 licensee that it is not a competitor of Gaussian, Inc. and that
 it will not use this program in any manner prohibited above.
 ---------------------------------------------------------------
  

 Cite this work as:
 Gaussian 09, Revision B.01,
 M. J. Frisch, G. W. Trucks, H. B. Schlegel, G. E. Scuseria, 
 M. A. Robb, J. R. Cheeseman, G. Scalmani, V. Barone, B. Mennucci, 
 G. A. Petersson, H. Nakatsuji, M. Caricato, X. Li, H. P. Hratchian, 
 A. F. Izmaylov, J. Bloino, G. Zheng, J. L. Sonnenberg, M. Hada, 
 M. Ehara, K. Toyota, R. Fukuda, J. Hasegawa, M. Ishida, T. Nakajima, 
 Y. Honda, O. Kitao, H. Nakai, T. Vreven, J. A. Montgomery, Jr., 
 J. E. Peralta, F. Ogliaro, M. Bearpark, J. J. Heyd, E. Brothers, 
 K. N. Kudin, V. N. Staroverov, T. Keith, R. Kobayashi, J. Normand, 
 K. Raghavachari, A. Rendell, J. C. Burant, S. S. Iyengar, J. Tomasi, 
 M. Cossi, N. Rega, J. M. Millam, M. Klene, J. E. Knox, J. B. Cross, 
 V. Bakken, C. Adamo, J. Jaramillo, R. Gomperts, R. E. Stratmann, 
 O. Yazyev, A. J. Austin, R. Cammi, C. Pomelli, J. W. Ochterski, 
 R. L. Martin, K. Morokuma, V. G. Zakrzewski, G. A. Voth, 
 P. Salvador, J. J. Dannenberg, S. Dapprich, A. D. Daniels, 
 O. Farkas, J. B. Foresman, J. V. Ortiz, J. Cioslowski, 
 and D. J. Fox, Gaussian, Inc., Wallingford CT, 2010.
 
 ******************************************
 Gaussian 09:  EM64L-G09RevB.01 12-Aug-2010
                26-Oct-2016 
 ******************************************
 --------------------------
 #p external='./gxdmopt.sh'
 --------------------------
 1/38=1/1;
 2/12=2,17=6,18=5,40=1/2;
 3/5=30,11=9,16=1,25=1,30=1,41=9900000,43=2/1;
 4/20=17,24=3,113=1,114=1/2;
 99/5=1,9=1/99;
 Leave Link    1 at Wed Oct 26 14:30:43 2016, MaxMem=          0 cpu:       0.0
 (Enter /opt/g09/l101.exe)
 -----
 title
 -----
 Symbolic Z-matrix:
 Charge =  0 Multiplicity = 1
 C                     1.55     -0.9       0. 
 O                     1.55      0.2596    0. 
 O                     1.55     -2.0596    0. 
 C                    -1.55      0.9       0. 
 O                    -1.55     -0.2596    0. 
 O                    -1.55      2.0596    0. 
 
 NAtoms=      6 NQM=      6 NQMF=      0 NMic=      0 NMicF=      0 NTot=      6.
                    Isotopes and Nuclear Properties:
 (Nuclear quadrupole moments (NQMom) in fm**2, nuclear magnetic moments (NMagM)
  in nuclear magnetons)

  Atom         1           2           3           4           5           6
 IAtWgt=          12          16          16          12          16          16
 AtmWgt=  12.0000000  15.9949146  15.9949146  12.0000000  15.9949146  15.9949146
 NucSpn=           0           0           0           0           0           0
 AtZEff=   0.0000000   0.0000000   0.0000000   0.0000000   0.0000000   0.0000000
 NQMom=    0.0000000   0.0000000   0.0000000   0.0000000   0.0000000   0.0000000
 NMagM=    0.0000000   0.0000000   0.0000000   0.0000000   0.0000000   0.0000000
 Leave Link  101 at Wed Oct 26 14:30:43 2016, MaxMem=   33554432 cpu:       0.1
 (Enter /opt/g09/l202.exe)
                          Input orientation:                          
 ---------------------------------------------------------------------
 Center     Atomic      Atomic             Coordinates (Angstroms)
 Number     Number       Type             X           Y           Z
 ---------------------------------------------------------------------
      1          6           0        1.550000   -0.900000    0.000000
      2          8           0        1.550000    0.259600    0.000000
      3          8           0        1.550000   -2.059600    0.000000
      4          6           0       -1.550000    0.900000    0.000000
      5          8           0       -1.550000   -0.259600    0.000000
      6          8           0       -1.550000    2.059600    0.000000
 ---------------------------------------------------------------------
                    Distance matrix (angstroms):
                    1          2          3          4          5
     1  C    0.000000
     2  O    1.159600   0.000000
     3  O    1.159600   2.319200   0.000000
     4  C    3.584690   3.165456   4.285934   0.000000
     5  O    3.165456   3.143178   3.584690   1.159600   0.000000
     6  O    4.285934   3.584690   5.155367   1.159600   2.319200
                    6
     6  O    0.000000
 Stoichiometry    C2O4
 Framework group  C2H[SGH(C2O4)]
 Deg. of freedom     5
 Full point group                 C2H     NOp   4
 Largest Abelian subgroup         C2H     NOp   4
 Largest concise Abelian subgroup C2      NOp   2
                         Standard orientation:                         
 ---------------------------------------------------------------------
 Center     Atomic      Atomic             Coordinates (Angstroms)
 Number     Number       Type             X           Y           Z
 ---------------------------------------------------------------------
      1          6           0       -1.550000    0.900000    0.000000
      2          8           0       -1.550000   -0.259600    0.000000
      3          8           0       -1.550000    2.059600    0.000000
      4          6           0        1.550000   -0.900000    0.000000
      5          8           0        1.550000    0.259600    0.000000
      6          8           0        1.550000   -2.059600    0.000000
 ---------------------------------------------------------------------
 Rotational constants (GHZ):      8.6156044      1.6302141      1.3708304
 Leave Link  202 at Wed Oct 26 14:30:43 2016, MaxMem=   33554432 cpu:       0.0
 (Enter /opt/g09/l301.exe)
 Standard basis: Dummy (5D, 7F)
 There are     3 symmetry adapted basis functions of AG  symmetry.
 There are     0 symmetry adapted basis functions of BG  symmetry.
 There are     0 symmetry adapted basis functions of AU  symmetry.
 There are     3 symmetry adapted basis functions of BU  symmetry.
 Integral buffers will be    131072 words long.
 Raffenetti 1 integral format.
 Two-electron integral symmetry is turned on.
     6 basis functions,     6 primitive gaussians,     6 cartesian basis functions
     6 alpha electrons        6 beta electrons
       nuclear repulsion energy        14.3074897961 Hartrees.
 IExCor=    0 DFT=F Ex=HF Corr=None ExCW=0 ScaHFX=  1.000000
 ScaDFX=  1.000000  1.000000  1.000000  1.000000 ScalE2=  1.000000  1.000000
 IRadAn=      0 IRanWt=     -1 IRanGd=            0 ICorTp=0
 NAtoms=    6 NActive=    6 NUniq=    3 SFac= 4.00D+00 NAtFMM=   50 NAOKFM=F Big=F
 Leave Link  301 at Wed Oct 26 14:30:43 2016, MaxMem=   33554432 cpu:       0.0
 (Enter /opt/g09/l402.exe)
 External calculation of energy.
 Running external command "./gxdmopt.sh R"
         input file       "/home/stephen/scratch/Gau-6160.EIn"
         output file      "/home/stephen/scratch/Gau-6160.EOu"
         message file     "/home/stephen/scratch/Gau-6160.EMs"

 --------------------------------------------------------------------------------
 Output from external command:
 "./gxdmopt.sh R /home/stephen/scratch/Gau-6160.EIn /home/stephen/scratch/Gau-6160.EOu /home/stephen/scratch/Gau-6160.EMs"
 #XDM# tail -n 50 logfile
      4  C    0.284498
      5  O   -0.139708
      6  O   -0.144790
  Sum of Mulliken charges with hydrogens summed into heavy atoms =   0.00000
  Electronic spatial extent (au):  <R**2>=            731.0241
  Charge=              0.0000 electrons
  Dipole moment (field-independent basis, Debye):
     X=              0.0000    Y=              0.0000    Z=              0.0000  Tot=              0.0000
  Quadrupole moment (field-independent basis, Debye-Ang):
    XX=            -29.7610   YY=            -38.0898   ZZ=            -29.7891
    XY=             -0.2161   XZ=              0.0000   YZ=              0.0000
  Traceless Quadrupole moment (field-independent basis, Debye-Ang):
    XX=              2.7856   YY=             -5.5432   ZZ=              2.7576
    XY=             -0.2161   XZ=              0.0000   YZ=              0.0000
  Octapole moment (field-independent basis, Debye-Ang**2):
   XXX=              0.0000  YYY=              0.0000  ZZZ=              0.0000  XYY=              0.0000
   XXY=              0.0000  XXZ=              0.0000  XZZ=              0.0000  YZZ=              0.0000
   YYZ=              0.0000  XYZ=              0.0000
  Hexadecapole moment (field-independent basis, Debye-Ang**3):
  XXXX=           -454.0016 YYYY=           -393.3693 ZZZZ=            -24.5539 XXXY=            124.3134
  XXXZ=              0.0000 YYYX=            159.6830 YYYZ=              0.0000 ZZZX=              0.0000
  ZZZY=              0.0000 XXYY=           -154.1829 XXZZ=            -79.7538 YYZZ=            -62.2837
  XXYZ=              0.0000 YYXZ=              0.0000 ZZXY=             41.4632
  N-N= 1.862798731107D+02 E-N=-1.259494556644D+03  KE= 3.751739326190D+02
  Symmetry AG   KE= 1.789036654677D+02
  Symmetry BG   KE= 8.567443236589D+00
  Symmetry AU   KE= 8.504320279801D+00
  Symmetry BU   KE= 1.791985036349D+02
  No NMR shielding tensors so no spin-rotation constants.
  Leave Link  601 at Wed Oct 26 14:30:53 2016, MaxMem=  268435456 cpu:       1.6
  (Enter /opt/g09/l9999.exe)
  
  Test job not archived.
  1\1\GINC-AMY\SP\RHF\Aug-CC-pVDZ\C2O4\STEPHEN\26-Oct-2016\0\\#p iop(3/7
  4=809) int(grid=ultrafine) # units=au output=wfx aug-cc-pvdz\\title\\0
  ,1\C,0,-1.55,0.9,0.\O,0,-1.55,-0.2596,0.\O,0,-1.55,2.0596,0.\C,0,1.55,
  -0.9,0.\O,0,1.55,0.2596,0.\O,0,1.55,-2.0596,0.\\Version=EM64L-G09RevB.
  01\State=1-AG\HF=-377.446791\RMSD=1.880e-09\Dipole=0.,0.,0.\Quadrupole
  =2.0710507,-4.1212447,2.050194,-0.1606912,0.,0.\PG=C02H [SGH(C2O4)]\\@
  
  Writing a WFNX file to /home/stephen/scratch/Gau-6160.EIn.wfx.
  
  
  ... THIS SEEMS PLAINLY ABSURD; BUT WHOEVER WISHES TO BECOME A
  PHILOSOPHER MUST LEARN NOT TO BE FRIGHTENED BY ABSURDITIES.
  
                           -- BERTRAND RUSSELL
  Job cpu time:  0 days  0 hours  0 minutes 27.2 seconds.
  File lengths (MBytes):  RWF=     14 Int=      0 D2E=      0 Chk=      2 Scr=      1
  Normal termination of Gaussian 09 at Wed Oct 26 14:30:53 2016.
 #XDM# grep 'Delta-E' logfile
  E= -377.314942190698     Delta-E=        0.022443088421 Rises=F Damp=T
  E= -377.442346062100     Delta-E=       -0.127403871402 Rises=F Damp=F
  E= -377.443553807948     Delta-E=       -0.001207745848 Rises=F Damp=F
  E= -377.446665129942     Delta-E=       -0.003111321994 Rises=F Damp=F
  E= -377.446790793427     Delta-E=       -0.000125663485 Rises=F Damp=F
  E= -377.446790963396     Delta-E=       -0.000000169969 Rises=F Damp=F
  E= -377.446790966081     Delta-E=       -0.000000002685 Rises=F Damp=F
  E= -377.446790966261     Delta-E=       -0.000000000181 Rises=F Damp=F
  E= -377.446790966272     Delta-E=       -0.000000000011 Rises=F Damp=F
 #XDM# energies from postg output (hartree)
 dispersion energy  -1.869941504944E-03
 scf energy  -3.774467909663E+02
 total energy (SCF+XDM)  -3.774486609078E+02
 --------------------------------------------------------------------------------

 Recovered energy= -377.448660908     dipole=      0.000000000000      0.000000000000      0.000000000000
 Energy=    -377.448661     NIter=   0.
 Dipole moment=       0.000000       0.000000       0.000000
 Leave Link  402 at Wed Oct 26 14:30:58 2016, MaxMem=   33554432 cpu:       0.0
 (Enter /opt/g09/l9999.exe)
 1\1\GINC-AMY\SP\RExternal='./gxdmopt.sh'\ZDO\C2O4\STEPHEN\26-Oct-2016\
 0\\#p external='./gxdmopt.sh'\\title\\0,1\C,0,1.55,-0.9,0.\O,0,1.55,0.
 2596,0.\O,0,1.55,-2.0596,0.\C,0,-1.55,0.9,0.\O,0,-1.55,-0.2596,0.\O,0,
 -1.55,2.0596,0.\\Version=EM64L-G09RevB.01\HF=-377.4486609\RMSD=0.000e+
 00\Dipole=0.,0.,0.\PG=C02H [SGH(C2O4)]\\@


 EXPERIENCE IS A WONDERFUL THING.  IT ENABLES
 YOU TO RECOGNIZE A MISTAKE WHEN YOU MAKE IT AGAIN.
           - BACK OF A SUGAR PACKET
 Job cpu time:  0 days  0 hours  0 minutes  0.2 seconds.
 File lengths (MBytes):  RWF=      5 Int=      0 D2E=      0 Chk=      1 Scr=      1
 Normal termination of Gaussian 09 at Wed Oct 26 14:30:58 2016.
