 Entering Gaussian System, Link 0=g09
 Initial command:
 /usr/local/gaussian/g09.D01/g09/l1.exe "/nqs/sdale/ct/new/hf/Gau-4939.inp" -scrdir="/nqs/sdale/ct/new/hf/"
 Entering Link 1 = /usr/local/gaussian/g09.D01/g09/l1.exe PID=      4940.
  
 Copyright (c) 1988,1990,1992,1993,1995,1998,2003,2009,2013,
            Gaussian, Inc.  All Rights Reserved.
  
 This is part of the Gaussian(R) 09 program.  It is based on
 the Gaussian(R) 03 system (copyright 2003, Gaussian, Inc.),
 the Gaussian(R) 98 system (copyright 1998, Gaussian, Inc.),
 the Gaussian(R) 94 system (copyright 1995, Gaussian, Inc.),
 the Gaussian 92(TM) system (copyright 1992, Gaussian, Inc.),
 the Gaussian 90(TM) system (copyright 1990, Gaussian, Inc.),
 the Gaussian 88(TM) system (copyright 1988, Gaussian, Inc.),
 the Gaussian 86(TM) system (copyright 1986, Carnegie Mellon
 University), and the Gaussian 82(TM) system (copyright 1983,
 Carnegie Mellon University). Gaussian is a federally registered
 trademark of Gaussian, Inc.
  
 This software contains proprietary and confidential information,
 including trade secrets, belonging to Gaussian, Inc.
  
 This software is provided under written license and may be
 used, copied, transmitted, or stored only in accord with that
 written license.
  
 The following legend is applicable only to US Government
 contracts under FAR:
  
                    RESTRICTED RIGHTS LEGEND
  
 Use, reproduction and disclosure by the US Government is
 subject to restrictions as set forth in subparagraphs (a)
 and (c) of the Commercial Computer Software - Restricted
 Rights clause in FAR 52.227-19.
  
 Gaussian, Inc.
 340 Quinnipiac St., Bldg. 40, Wallingford CT 06492
  
  
 ---------------------------------------------------------------
 Warning -- This program may not be used in any manner that
 competes with the business of Gaussian, Inc. or will provide
 assistance to any competitor of Gaussian, Inc.  The licensee
 of this program is prohibited from giving any competitor of
 Gaussian, Inc. access to this program.  By using this program,
 the user acknowledges that Gaussian, Inc. is engaged in the
 business of creating and licensing software in the field of
 computational chemistry and represents and warrants to the
 licensee that it is not a competitor of Gaussian, Inc. and that
 it will not use this program in any manner prohibited above.
 ---------------------------------------------------------------
  

 Cite this work as:
 Gaussian 09, Revision D.01,
 M. J. Frisch, G. W. Trucks, H. B. Schlegel, G. E. Scuseria, 
 M. A. Robb, J. R. Cheeseman, G. Scalmani, V. Barone, B. Mennucci, 
 G. A. Petersson, H. Nakatsuji, M. Caricato, X. Li, H. P. Hratchian, 
 A. F. Izmaylov, J. Bloino, G. Zheng, J. L. Sonnenberg, M. Hada, 
 M. Ehara, K. Toyota, R. Fukuda, J. Hasegawa, M. Ishida, T. Nakajima, 
 Y. Honda, O. Kitao, H. Nakai, T. Vreven, J. A. Montgomery, Jr., 
 J. E. Peralta, F. Ogliaro, M. Bearpark, J. J. Heyd, E. Brothers, 
 K. N. Kudin, V. N. Staroverov, T. Keith, R. Kobayashi, J. Normand, 
 K. Raghavachari, A. Rendell, J. C. Burant, S. S. Iyengar, J. Tomasi, 
 M. Cossi, N. Rega, J. M. Millam, M. Klene, J. E. Knox, J. B. Cross, 
 V. Bakken, C. Adamo, J. Jaramillo, R. Gomperts, R. E. Stratmann, 
 O. Yazyev, A. J. Austin, R. Cammi, C. Pomelli, J. W. Ochterski, 
 R. L. Martin, K. Morokuma, V. G. Zakrzewski, G. A. Voth, 
 P. Salvador, J. J. Dannenberg, S. Dapprich, A. D. Daniels, 
 O. Farkas, J. B. Foresman, J. V. Ortiz, J. Cioslowski, 
 and D. J. Fox, Gaussian, Inc., Wallingford CT, 2013.
 
 ******************************************
 Gaussian 09:  AM64L-G09RevD.01 24-Apr-2013
                 1-Dec-2017 
 ******************************************
 %nproc=4
 Will use up to    4 processors via shared memory.
 ----------------------------------
 #P hf aug-cc-pVTZ population=hirsh
 ----------------------------------
 1/38=1/1;
 2/12=2,17=6,18=5,40=1/2;
 3/5=16,6=1,7=10,11=9,16=1,25=1,30=1/1,2,3;
 4//1;
 5/5=2,38=5/2;
 6/7=2,8=2,9=2,10=2,28=1,79=1/1;
 99/5=1,9=1/99;
 Leave Link    1 at Fri Dec  1 00:23:07 2017, MaxMem=           0 cpu:         2.1
 (Enter /usr/local/gaussian/g09.D01/g09/l101.exe)
 -----
 title
 -----
 Symbolic Z-matrix:
 Charge =  0 Multiplicity = 1
 8                     0.        0.        0.11842 
 1                     0.        0.76133  -0.47368 
 1                     0.       -0.76133  -0.47368 
 
 NAtoms=      3 NQM=        3 NQMF=       0 NMMI=      0 NMMIF=      0
                NMic=       0 NMicF=      0.
                    Isotopes and Nuclear Properties:
 (Nuclear quadrupole moments (NQMom) in fm**2, nuclear magnetic moments (NMagM)
  in nuclear magnetons)

  Atom         1           2           3
 IAtWgt=          16           1           1
 AtmWgt=  15.9949146   1.0078250   1.0078250
 NucSpn=           0           1           1
 AtZEff=   0.0000000   0.0000000   0.0000000
 NQMom=    0.0000000   0.0000000   0.0000000
 NMagM=    0.0000000   2.7928460   2.7928460
 AtZNuc=   8.0000000   1.0000000   1.0000000
 Leave Link  101 at Fri Dec  1 00:23:07 2017, MaxMem=    33554432 cpu:         0.4
 (Enter /usr/local/gaussian/g09.D01/g09/l202.exe)
                          Input orientation:                          
 ---------------------------------------------------------------------
 Center     Atomic      Atomic             Coordinates (Angstroms)
 Number     Number       Type             X           Y           Z
 ---------------------------------------------------------------------
      1          8           0        0.000000    0.000000    0.118420
      2          1           0        0.000000    0.761330   -0.473680
      3          1           0        0.000000   -0.761330   -0.473680
 ---------------------------------------------------------------------
                    Distance matrix (angstroms):
                    1          2          3
     1  O    0.000000
     2  H    0.964472   0.000000
     3  H    0.964472   1.522660   0.000000
 Stoichiometry    H2O
 Framework group  C2V[C2(O),SGV(H2)]
 Deg. of freedom     2
 Full point group                 C2V     NOp   4
 Largest Abelian subgroup         C2V     NOp   4
 Largest concise Abelian subgroup C2      NOp   2
                         Standard orientation:                         
 ---------------------------------------------------------------------
 Center     Atomic      Atomic             Coordinates (Angstroms)
 Number     Number       Type             X           Y           Z
 ---------------------------------------------------------------------
      1          8           0        0.000000    0.000000    0.118420
      2          1           0        0.000000    0.761330   -0.473680
      3          1           0        0.000000   -0.761330   -0.473680
 ---------------------------------------------------------------------
 Rotational constants (GHZ):    805.2993313    432.5697748    281.4095195
 Leave Link  202 at Fri Dec  1 00:23:07 2017, MaxMem=    33554432 cpu:         0.0
 (Enter /usr/local/gaussian/g09.D01/g09/l301.exe)
 Standard basis: Aug-CC-pVTZ (5D, 7F)
 Ernie: Thresh=  0.10000D-02 Tol=  0.10000D-05 Strict=F.
 Ernie:  3 primitive shells out of 52 were deleted.
 There are    42 symmetry adapted cartesian basis functions of A1  symmetry.
 There are    12 symmetry adapted cartesian basis functions of A2  symmetry.
 There are    20 symmetry adapted cartesian basis functions of B1  symmetry.
 There are    31 symmetry adapted cartesian basis functions of B2  symmetry.
 There are    35 symmetry adapted basis functions of A1  symmetry.
 There are    12 symmetry adapted basis functions of A2  symmetry.
 There are    18 symmetry adapted basis functions of B1  symmetry.
 There are    27 symmetry adapted basis functions of B2  symmetry.
    92 basis functions,   126 primitive gaussians,   105 cartesian basis functions
     5 alpha electrons        5 beta electrons
       nuclear repulsion energy         9.1262627963 Hartrees.
 IExCor=    0 DFT=F Ex=HF Corr=None ExCW=0 ScaHFX=  1.000000
 ScaDFX=  1.000000  1.000000  1.000000  1.000000 ScalE2=  1.000000  1.000000
 IRadAn=      0 IRanWt=     -1 IRanGd=            0 ICorTp=0 IEmpDi=  4
 NAtoms=    3 NActive=    3 NUniq=    2 SFac= 2.25D+00 NAtFMM=   60 NAOKFM=F Big=F
 Integral buffers will be    131072 words long.
 Raffenetti 1 integral format.
 Two-electron integral symmetry is turned on.
 Leave Link  301 at Fri Dec  1 00:23:07 2017, MaxMem=    33554432 cpu:         0.4
 (Enter /usr/local/gaussian/g09.D01/g09/l302.exe)
 NPDir=0 NMtPBC=     1 NCelOv=     1 NCel=       1 NClECP=     1 NCelD=      1
         NCelK=      1 NCelE2=     1 NClLst=     1 CellRange=     0.0.
 One-electron integrals computed using PRISM.
 One-electron integral symmetry used in STVInt
 NBasis=    92 RedAO= T EigKep=  4.82D-04  NBF=    35    12    18    27
 NBsUse=    92 1.00D-06 EigRej= -1.00D+00 NBFU=    35    12    18    27
 Leave Link  302 at Fri Dec  1 00:23:07 2017, MaxMem=    33554432 cpu:         0.8
 (Enter /usr/local/gaussian/g09.D01/g09/l303.exe)
 DipDrv:  MaxL=1.
 Leave Link  303 at Fri Dec  1 00:23:08 2017, MaxMem=    33554432 cpu:         0.2
 (Enter /usr/local/gaussian/g09.D01/g09/l401.exe)
 ExpMin= 2.53D-02 ExpMax= 1.53D+04 ExpMxC= 5.22D+02 IAcc=3 IRadAn=         5 AccDes= 0.00D+00
 Harris functional with IExCor=  205 and IRadAn=       5 diagonalized for initial guess.
 HarFok:  IExCor=  205 AccDes= 0.00D+00 IRadAn=         5 IDoV= 1 UseB2=F ITyADJ=14
 ICtDFT=  3500011 ScaDFX=  1.000000  1.000000  1.000000  1.000000
 FoFCou: FMM=F IPFlag=           0 FMFlag=      100000 FMFlg1=           0
         NFxFlg=           0 DoJE=T BraDBF=F KetDBF=T FulRan=T
         wScrn=  0.000000 ICntrl=     500 IOpCl=  0 I1Cent=   200000004 NGrid=           0
         NMat0=    1 NMatS0=      1 NMatT0=    0 NMatD0=    1 NMtDS0=    0 NMtDT0=    0
 Petite list used in FoFCou.
 Harris En= -76.1530015755095    
 JPrj=0 DoOrth=F DoCkMO=F.
 Initial guess orbital symmetries:
       Occupied  (A1) (A1) (B2) (A1) (B1)
       Virtual   (A1) (B2) (A1) (B1) (A1) (B2) (B2) (A1) (A2) (A1)
                 (B1) (B2) (A1) (B2) (B2) (A1) (A1) (B1) (A2) (A1)
                 (B1) (A1) (B1) (B2) (A2) (A1) (B2) (B2) (A1) (B1)
                 (B2) (A1) (A2) (B2) (A2) (A1) (B1) (A1) (B2) (B2)
                 (A1) (B1) (A2) (A1) (A1) (B1) (B2) (A1) (B2) (B1)
                 (A1) (B2) (A2) (B2) (A1) (B1) (A2) (A1) (B2) (B1)
                 (A2) (B1) (A1) (B2) (A1) (B2) (A2) (B2) (B2) (A1)
                 (B1) (A1) (A1) (B2) (B1) (A1) (B1) (B1) (A1) (A2)
                 (B2) (A2) (A1) (A1) (B2) (B2) (A1)
 The electronic state of the initial guess is 1-A1.
 Leave Link  401 at Fri Dec  1 00:23:09 2017, MaxMem=    33554432 cpu:         0.9
 (Enter /usr/local/gaussian/g09.D01/g09/l502.exe)
 Closed shell SCF:
 Using DIIS extrapolation, IDIIS=  1040.
 Integral symmetry usage will be decided dynamically.
 Keep R1 ints in memory in symmetry-blocked form, NReq=11548728.
 IVT=       53215 IEndB=       53215 NGot=    33554432 MDV=    31158578
 LenX=    31158578 LenY=    31147112
 Requested convergence on RMS density matrix=1.00D-08 within 128 cycles.
 Requested convergence on MAX density matrix=1.00D-06.
 Requested convergence on             energy=1.00D-06.
 No special actions if energy rises.
 FoFCou: FMM=F IPFlag=           0 FMFlag=           0 FMFlg1=           0
         NFxFlg=           0 DoJE=F BraDBF=F KetDBF=F FulRan=T
         wScrn=  0.000000 ICntrl=     600 IOpCl=  0 I1Cent=           0 NGrid=           0
         NMat0=    1 NMatS0=   4278 NMatT0=    0 NMatD0=    1 NMtDS0=    0 NMtDT0=    0
 Petite list used in FoFCou.

 Cycle   1  Pass 1  IDiag  1:
 E= -75.9711983842079    
 DIIS: error= 5.53D-02 at cycle   1 NSaved=   1.
 NSaved= 1 IEnMin= 1 EnMin= -75.9711983842079     IErMin= 1 ErrMin= 5.53D-02
 ErrMax= 5.53D-02  0.00D+00 EMaxC= 1.00D-01 BMatC= 2.03D-01 BMatP= 2.03D-01
 IDIUse=3 WtCom= 4.47D-01 WtEn= 5.53D-01
 Coeff-Com:  0.100D+01
 Coeff-En:   0.100D+01
 Coeff:      0.100D+01
 Gap=     0.452 Goal=   None    Shift=    0.000
 GapD=    0.452 DampG=2.000 DampE=0.500 DampFc=1.0000 IDamp=-1.
 RMSDP=2.15D-03 MaxDP=4.85D-02              OVMax= 1.24D-01

 Cycle   2  Pass 1  IDiag  1:
 E= -76.0228484721696     Delta-E=       -0.051650087962 Rises=F Damp=F
 DIIS: error= 3.82D-02 at cycle   2 NSaved=   2.
 NSaved= 2 IEnMin= 2 EnMin= -76.0228484721696     IErMin= 2 ErrMin= 3.82D-02
 ErrMax= 3.82D-02  0.00D+00 EMaxC= 1.00D-01 BMatC= 5.98D-02 BMatP= 2.03D-01
 IDIUse=3 WtCom= 6.18D-01 WtEn= 3.82D-01
 Coeff-Com:  0.324D+00 0.676D+00
 Coeff-En:   0.206D+00 0.794D+00
 Coeff:      0.279D+00 0.721D+00
 Gap=     0.566 Goal=   None    Shift=    0.000
 RMSDP=1.31D-03 MaxDP=3.45D-02 DE=-5.17D-02 OVMax= 6.53D-02

 Cycle   3  Pass 1  IDiag  1:
 E= -76.0582283753154     Delta-E=       -0.035379903146 Rises=F Damp=F
 DIIS: error= 7.74D-03 at cycle   3 NSaved=   3.
 NSaved= 3 IEnMin= 3 EnMin= -76.0582283753154     IErMin= 3 ErrMin= 7.74D-03
 ErrMax= 7.74D-03  0.00D+00 EMaxC= 1.00D-01 BMatC= 2.83D-03 BMatP= 5.98D-02
 IDIUse=3 WtCom= 9.23D-01 WtEn= 7.74D-02
 Coeff-Com: -0.308D-01 0.147D+00 0.884D+00
 Coeff-En:   0.000D+00 0.000D+00 0.100D+01
 Coeff:     -0.285D-01 0.136D+00 0.893D+00
 Gap=     0.537 Goal=   None    Shift=    0.000
 RMSDP=2.18D-04 MaxDP=4.11D-03 DE=-3.54D-02 OVMax= 1.27D-02

 Cycle   4  Pass 1  IDiag  1:
 E= -76.0599990311868     Delta-E=       -0.001770655871 Rises=F Damp=F
 DIIS: error= 8.10D-04 at cycle   4 NSaved=   4.
 NSaved= 4 IEnMin= 4 EnMin= -76.0599990311868     IErMin= 4 ErrMin= 8.10D-04
 ErrMax= 8.10D-04  0.00D+00 EMaxC= 1.00D-01 BMatC= 1.35D-05 BMatP= 2.83D-03
 IDIUse=3 WtCom= 9.92D-01 WtEn= 8.10D-03
 Coeff-Com:  0.698D-02-0.547D-01-0.247D+00 0.130D+01
 Coeff-En:   0.000D+00 0.000D+00 0.000D+00 0.100D+01
 Coeff:      0.692D-02-0.542D-01-0.245D+00 0.129D+01
 Gap=     0.538 Goal=   None    Shift=    0.000
 RMSDP=3.81D-05 MaxDP=7.16D-04 DE=-1.77D-03 OVMax= 2.26D-03

 Cycle   5  Pass 1  IDiag  1:
 E= -76.0600229029252     Delta-E=       -0.000023871738 Rises=F Damp=F
 DIIS: error= 2.24D-04 at cycle   5 NSaved=   5.
 NSaved= 5 IEnMin= 5 EnMin= -76.0600229029252     IErMin= 5 ErrMin= 2.24D-04
 ErrMax= 2.24D-04  0.00D+00 EMaxC= 1.00D-01 BMatC= 6.73D-07 BMatP= 1.35D-05
 IDIUse=3 WtCom= 9.98D-01 WtEn= 2.24D-03
 Coeff-Com:  0.267D-03 0.208D-02 0.703D-02-0.277D+00 0.127D+01
 Coeff-En:   0.000D+00 0.000D+00 0.000D+00 0.000D+00 0.100D+01
 Coeff:      0.266D-03 0.208D-02 0.701D-02-0.276D+00 0.127D+01
 Gap=     0.539 Goal=   None    Shift=    0.000
 RMSDP=1.11D-05 MaxDP=2.32D-04 DE=-2.39D-05 OVMax= 7.10D-04

 Cycle   6  Pass 1  IDiag  1:
 E= -76.0600245761483     Delta-E=       -0.000001673223 Rises=F Damp=F
 DIIS: error= 3.69D-05 at cycle   6 NSaved=   6.
 NSaved= 6 IEnMin= 6 EnMin= -76.0600245761483     IErMin= 6 ErrMin= 3.69D-05
 ErrMax= 3.69D-05  0.00D+00 EMaxC= 1.00D-01 BMatC= 2.00D-08 BMatP= 6.73D-07
 IDIUse=1 WtCom= 1.00D+00 WtEn= 0.00D+00
 Coeff-Com: -0.269D-03 0.126D-02 0.534D-02 0.211D-01-0.328D+00 0.130D+01
 Coeff:     -0.269D-03 0.126D-02 0.534D-02 0.211D-01-0.328D+00 0.130D+01
 Gap=     0.539 Goal=   None    Shift=    0.000
 RMSDP=2.26D-06 MaxDP=5.49D-05 DE=-1.67D-06 OVMax= 1.49D-04

 Cycle   7  Pass 1  IDiag  1:
 E= -76.0600246360869     Delta-E=       -0.000000059939 Rises=F Damp=F
 DIIS: error= 6.88D-06 at cycle   7 NSaved=   7.
 NSaved= 7 IEnMin= 7 EnMin= -76.0600246360869     IErMin= 7 ErrMin= 6.88D-06
 ErrMax= 6.88D-06  0.00D+00 EMaxC= 1.00D-01 BMatC= 8.97D-10 BMatP= 2.00D-08
 IDIUse=1 WtCom= 1.00D+00 WtEn= 0.00D+00
 Coeff-Com:  0.300D-04-0.333D-03-0.149D-02 0.143D-01-0.202D-01-0.166D+00
 Coeff-Com:  0.117D+01
 Coeff:      0.300D-04-0.333D-03-0.149D-02 0.143D-01-0.202D-01-0.166D+00
 Coeff:      0.117D+01
 Gap=     0.539 Goal=   None    Shift=    0.000
 RMSDP=3.25D-07 MaxDP=7.30D-06 DE=-5.99D-08 OVMax= 2.60D-05

 Cycle   8  Pass 1  IDiag  1:
 E= -76.0600246380000     Delta-E=       -0.000000001913 Rises=F Damp=F
 DIIS: error= 1.37D-06 at cycle   8 NSaved=   8.
 NSaved= 8 IEnMin= 8 EnMin= -76.0600246380000     IErMin= 8 ErrMin= 1.37D-06
 ErrMax= 1.37D-06  0.00D+00 EMaxC= 1.00D-01 BMatC= 4.75D-11 BMatP= 8.97D-10
 IDIUse=1 WtCom= 1.00D+00 WtEn= 0.00D+00
 Coeff-Com:  0.661D-05 0.166D-04 0.133D-03-0.492D-02 0.215D-01-0.207D-01
 Coeff-Com: -0.335D+00 0.134D+01
 Coeff:      0.661D-05 0.166D-04 0.133D-03-0.492D-02 0.215D-01-0.207D-01
 Coeff:     -0.335D+00 0.134D+01
 Gap=     0.539 Goal=   None    Shift=    0.000
 RMSDP=1.04D-07 MaxDP=2.18D-06 DE=-1.91D-09 OVMax= 6.74D-06

 Cycle   9  Pass 1  IDiag  1:
 E= -76.0600246381210     Delta-E=       -0.000000000121 Rises=F Damp=F
 DIIS: error= 1.44D-07 at cycle   9 NSaved=   9.
 NSaved= 9 IEnMin= 9 EnMin= -76.0600246381210     IErMin= 9 ErrMin= 1.44D-07
 ErrMax= 1.44D-07  0.00D+00 EMaxC= 1.00D-01 BMatC= 7.57D-13 BMatP= 4.75D-11
 IDIUse=1 WtCom= 1.00D+00 WtEn= 0.00D+00
 Coeff-Com: -0.188D-05 0.132D-05-0.121D-04 0.892D-03-0.416D-02 0.595D-02
 Coeff-Com:  0.672D-01-0.354D+00 0.128D+01
 Coeff:     -0.188D-05 0.132D-05-0.121D-04 0.892D-03-0.416D-02 0.595D-02
 Coeff:      0.672D-01-0.354D+00 0.128D+01
 Gap=     0.539 Goal=   None    Shift=    0.000
 RMSDP=1.69D-08 MaxDP=3.59D-07 DE=-1.21D-10 OVMax= 7.77D-07

 Cycle  10  Pass 1  IDiag  1:
 E= -76.0600246381230     Delta-E=       -0.000000000002 Rises=F Damp=F
 DIIS: error= 3.12D-08 at cycle  10 NSaved=  10.
 NSaved=10 IEnMin=10 EnMin= -76.0600246381230     IErMin=10 ErrMin= 3.12D-08
 ErrMax= 3.12D-08  0.00D+00 EMaxC= 1.00D-01 BMatC= 3.08D-14 BMatP= 7.57D-13
 IDIUse=1 WtCom= 1.00D+00 WtEn= 0.00D+00
 Coeff-Com:  0.560D-06-0.107D-05 0.910D-06-0.215D-03 0.105D-02-0.199D-02
 Coeff-Com: -0.143D-01 0.927D-01-0.496D+00 0.142D+01
 Coeff:      0.560D-06-0.107D-05 0.910D-06-0.215D-03 0.105D-02-0.199D-02
 Coeff:     -0.143D-01 0.927D-01-0.496D+00 0.142D+01
 Gap=     0.539 Goal=   None    Shift=    0.000
 RMSDP=4.06D-09 MaxDP=9.79D-08 DE=-2.00D-12 OVMax= 2.05D-07

 SCF Done:  E(RHF) =  -76.0600246381     A.U. after   10 cycles
            NFock= 10  Conv=0.41D-08     -V/T= 2.0017
 KE= 7.593075064187D+01 PE=-1.988514013481D+02 EE= 3.773436327184D+01
 Leave Link  502 at Fri Dec  1 00:23:13 2017, MaxMem=    33554432 cpu:        12.5
 (Enter /usr/local/gaussian/g09.D01/g09/l601.exe)
 Copying SCF densities to generalized density rwf, IOpCl= 0 IROHF=0.

 **********************************************************************

            Population analysis using the SCF density.

 **********************************************************************

 Orbital symmetries:
       Occupied  (A1) (A1) (B2) (A1) (B1)
       Virtual   (A1) (B2) (A1) (B1) (A1) (B2) (B2) (A1) (A2) (B1)
                 (A1) (B2) (A1) (B2) (B2) (A1) (A1) (A2) (B1) (A1)
                 (B1) (A1) (B2) (B1) (A2) (B2) (A1) (A1) (B2) (B1)
                 (B2) (A2) (A1) (B2) (A2) (A1) (B1) (A1) (B2) (B2)
                 (A1) (B1) (A2) (A1) (A1) (B1) (B2) (A1) (B2) (B1)
                 (A1) (B2) (A2) (B2) (A1) (A2) (B1) (A1) (B2) (B1)
                 (A2) (A1) (B1) (B2) (A1) (B2) (A2) (B2) (B2) (A1)
                 (B1) (A1) (A1) (B2) (B1) (A1) (B1) (B1) (B2) (A2)
                 (A1) (A2) (A1) (A1) (B2) (B2) (A1)
 The electronic state is 1-A1.
 Alpha  occ. eigenvalues --  -20.56858  -1.35007  -0.71339  -0.58407  -0.50984
 Alpha virt. eigenvalues --    0.02934   0.04767   0.13590   0.15892   0.17503
 Alpha virt. eigenvalues --    0.18305   0.22688   0.24475   0.26531   0.30000
 Alpha virt. eigenvalues --    0.31011   0.36564   0.43667   0.46543   0.59909
 Alpha virt. eigenvalues --    0.65799   0.70793   0.72258   0.73178   0.82935
 Alpha virt. eigenvalues --    0.84586   0.89272   0.91179   0.91882   0.92192
 Alpha virt. eigenvalues --    0.93033   0.96135   1.01956   1.04202   1.08211
 Alpha virt. eigenvalues --    1.10782   1.17523   1.18051   1.26213   1.50902
 Alpha virt. eigenvalues --    1.53658   1.58104   1.80663   1.81631   1.98031
 Alpha virt. eigenvalues --    2.11389   2.26208   2.31486   2.32719   2.41742
 Alpha virt. eigenvalues --    2.41958   2.44298   2.47934   2.67980   2.69890
 Alpha virt. eigenvalues --    2.76693   2.81590   2.88203   3.64646   3.73738
 Alpha virt. eigenvalues --    4.01412   4.07898   4.16334   4.24107   4.28700
 Alpha virt. eigenvalues --    4.37550   4.37552   4.40123   4.51332   4.71930
 Alpha virt. eigenvalues --    4.83185   5.13926   5.13933   5.24509   5.30913
 Alpha virt. eigenvalues --    5.50980   5.65787   6.17039   6.51442   6.70773
 Alpha virt. eigenvalues --    6.88880   7.12796   7.24785   7.29320   7.30341
 Alpha virt. eigenvalues --    7.32615   7.35356   7.52069   7.89269   7.90956
 Alpha virt. eigenvalues --    8.78095  15.60873
          Condensed to atoms (all electrons):
               1          2          3
     1  O    7.910962   0.269353   0.269353
     2  H    0.269353   0.485174   0.020640
     3  H    0.269353   0.020640   0.485174
 Mulliken charges:
               1
     1  O   -0.449667
     2  H    0.224834
     3  H    0.224834
 Sum of Mulliken charges =   0.00000
 Mulliken charges with hydrogens summed into heavy atoms:
               1
     1  O    0.000000
 Electronic spatial extent (au):  <R**2>=             19.5664
 Charge=              0.0000 electrons
 Dipole moment (field-independent basis, Debye):
    X=              0.0000    Y=              0.0000    Z=             -1.9928  Tot=              1.9928
 Quadrupole moment (field-independent basis, Debye-Ang):
   XX=             -7.5743   YY=             -4.2401   ZZ=             -6.2407
   XY=              0.0000   XZ=              0.0000   YZ=              0.0000
 Traceless Quadrupole moment (field-independent basis, Debye-Ang):
   XX=             -1.5559   YY=              1.7783   ZZ=             -0.2224
   XY=              0.0000   XZ=              0.0000   YZ=              0.0000
 Octapole moment (field-independent basis, Debye-Ang**2):
  XXX=              0.0000  YYY=              0.0000  ZZZ=             -1.1419  XYY=              0.0000
  XXY=              0.0000  XXZ=             -0.2504  XZZ=              0.0000  YZZ=              0.0000
  YYZ=             -1.4258  XYZ=              0.0000
 Hexadecapole moment (field-independent basis, Debye-Ang**3):
 XXXX=             -6.7501 YYYY=             -6.0113 ZZZZ=             -7.2926 XXXY=              0.0000
 XXXZ=              0.0000 YYYX=              0.0000 YYYZ=              0.0000 ZZZX=              0.0000
 ZZZY=              0.0000 XXYY=             -2.4616 XXZZ=             -2.3921 YYZZ=             -1.8568
 XXYZ=              0.0000 YYXZ=              0.0000 ZZXY=              0.0000
 N-N= 9.126262796321D+00 E-N=-1.988514013677D+02  KE= 7.593075064187D+01
 Symmetry A1   KE= 6.789918434352D+01
 Symmetry A2   KE= 3.940445075750D-32
 Symmetry B1   KE= 4.467532392961D+00
 Symmetry B2   KE= 3.564033905380D+00
 There are a total of       24966 grid points.
 ElSum from          density=        9.9999929182
 ElSum from atomic densities=        9.9999947872

 Hirshfeld populations at iteration   1 (CX, CA, CB, DipXYZ):
               1          2          3          4          5          6
     1  O    0.000002   4.167957   4.167957   0.000000   0.000000  -0.133889
     2  H    0.000000   0.416020   0.416020   0.000000   0.187074  -0.137137
     3  H    0.000000   0.416020   0.416020   0.000000  -0.187074  -0.137137
       Tot   0.000003   4.999996   4.999996   0.000000   0.000000  -0.408163

 Dip from Atomic Chgs              0.000000   0.000000  -0.375863
         Total Dipole              0.000000   0.000000  -0.784026

 Hirshfeld charges, spin densities, dipoles, and CM5 charges using IRadAn=      4:
              Q-H        S-H        Dx         Dy         Dz        Q-CM5   
     1  O   -0.335914   0.000000   0.000000   0.000000  -0.133889  -0.666437
     2  H    0.167961   0.000000   0.000000   0.187074  -0.137137   0.333222
     3  H    0.167961   0.000000   0.000000  -0.187074  -0.137137   0.333222
       Tot   0.000007   0.000000   0.000000   0.000000  -0.408163   0.000007
 Hirshfeld charges with hydrogens summed into heavy atoms:
              Q-H       Q-CM5   
     1  O    0.000007   0.000007
 
 EQQ= 0.000000000000E+00 EQD= 0.000000000000E+00 EDD= 0.538590041911E-02
 EQQ+QD+DD= 0.538590041911E-02
 
 No NMR shielding tensors so no spin-rotation constants.
 Leave Link  601 at Fri Dec  1 00:23:14 2017, MaxMem=    33554432 cpu:         3.0
 (Enter /usr/local/gaussian/g09.D01/g09/l9999.exe)
 1\1\GINC-CL256\SP\RHF\Aug-CC-pVTZ\H2O1\SDALE\01-Dec-2017\0\\#P hf aug-
 cc-pVTZ population=hirsh\\title\\0,1\O,0,0.,0.,0.11842\H,0,0.,0.76133,
 -0.47368\H,0,0.,-0.76133,-0.47368\\Version=AM64L-G09RevD.01\State=1-A1
 \HF=-76.0600246\RMSD=4.063e-09\Dipole=0.,0.,-0.7840177\Quadrupole=-1.1
 567738,1.3220967,-0.1653228,0.,0.,0.\PG=C02V [C2(O1),SGV(H2)]\\@


 LEARN FROM YESTERDAY,
 LIVE FOR TODAY,
 LOOK TO TOMORROW,
 REST THIS AFTERNOON.

           -- SNOOPY
 Job cpu time:       0 days  0 hours  0 minutes 20.9 seconds.
 File lengths (MBytes):  RWF=      5 Int=      0 D2E=      0 Chk=      1 Scr=      1
 Normal termination of Gaussian 09 at Fri Dec  1 00:23:14 2017.
