************************************************************
This is mrcd03.cluster of cluster MERCED.
Date: Tue Jul 26 22:46:54 CDT 2016
************************************************************
 Entering Gaussian System, Link 0=g09
 Initial command:
 /opt/gaussian/g09-b01/g09/l1.exe /tmp/24289.1.all.q/Gau-28609.inp -scrdir=/tmp/24289.1.all.q/
 Default is to use a total of  12 processors:
                               12 via shared-memory
                                1 via Linda
 Entering Link 1 = /opt/gaussian/g09-b01/g09/l1.exe PID=     28610.
  
 Copyright (c) 1988,1990,1992,1993,1995,1998,2003,2009,2010,
            Gaussian, Inc.  All Rights Reserved.
  
 This is part of the Gaussian(R) 09 program.  It is based on
 the Gaussian(R) 03 system (copyright 2003, Gaussian, Inc.),
 the Gaussian(R) 98 system (copyright 1998, Gaussian, Inc.),
 the Gaussian(R) 94 system (copyright 1995, Gaussian, Inc.),
 the Gaussian 92(TM) system (copyright 1992, Gaussian, Inc.),
 the Gaussian 90(TM) system (copyright 1990, Gaussian, Inc.),
 the Gaussian 88(TM) system (copyright 1988, Gaussian, Inc.),
 the Gaussian 86(TM) system (copyright 1986, Carnegie Mellon
 University), and the Gaussian 82(TM) system (copyright 1983,
 Carnegie Mellon University). Gaussian is a federally registered
 trademark of Gaussian, Inc.
  
 This software contains proprietary and confidential information,
 including trade secrets, belonging to Gaussian, Inc.
  
 This software is provided under written license and may be
 used, copied, transmitted, or stored only in accord with that
 written license.
  
 The following legend is applicable only to US Government
 contracts under FAR:
  
                    RESTRICTED RIGHTS LEGEND
  
 Use, reproduction and disclosure by the US Government is
 subject to restrictions as set forth in subparagraphs (a)
 and (c) of the Commercial Computer Software - Restricted
 Rights clause in FAR 52.227-19.
  
 Gaussian, Inc.
 340 Quinnipiac St., Bldg. 40, Wallingford CT 06492
  
  
 ---------------------------------------------------------------
 Warning -- This program may not be used in any manner that
 competes with the business of Gaussian, Inc. or will provide
 assistance to any competitor of Gaussian, Inc.  The licensee
 of this program is prohibited from giving any competitor of
 Gaussian, Inc. access to this program.  By using this program,
 the user acknowledges that Gaussian, Inc. is engaged in the
 business of creating and licensing software in the field of
 computational chemistry and represents and warrants to the
 licensee that it is not a competitor of Gaussian, Inc. and that
 it will not use this program in any manner prohibited above.
 ---------------------------------------------------------------
  

 Cite this work as:
 Gaussian 09, Revision B.01,
 M. J. Frisch, G. W. Trucks, H. B. Schlegel, G. E. Scuseria, 
 M. A. Robb, J. R. Cheeseman, G. Scalmani, V. Barone, B. Mennucci, 
 G. A. Petersson, H. Nakatsuji, M. Caricato, X. Li, H. P. Hratchian, 
 A. F. Izmaylov, J. Bloino, G. Zheng, J. L. Sonnenberg, M. Hada, 
 M. Ehara, K. Toyota, R. Fukuda, J. Hasegawa, M. Ishida, T. Nakajima, 
 Y. Honda, O. Kitao, H. Nakai, T. Vreven, J. A. Montgomery, Jr., 
 J. E. Peralta, F. Ogliaro, M. Bearpark, J. J. Heyd, E. Brothers, 
 K. N. Kudin, V. N. Staroverov, T. Keith, R. Kobayashi, J. Normand, 
 K. Raghavachari, A. Rendell, J. C. Burant, S. S. Iyengar, J. Tomasi, 
 M. Cossi, N. Rega, J. M. Millam, M. Klene, J. E. Knox, J. B. Cross, 
 V. Bakken, C. Adamo, J. Jaramillo, R. Gomperts, R. E. Stratmann, 
 O. Yazyev, A. J. Austin, R. Cammi, C. Pomelli, J. W. Ochterski, 
 R. L. Martin, K. Morokuma, V. G. Zakrzewski, G. A. Voth, 
 P. Salvador, J. J. Dannenberg, S. Dapprich, A. D. Daniels, 
 O. Farkas, J. B. Foresman, J. V. Ortiz, J. Cioslowski, 
 and D. J. Fox, Gaussian, Inc., Wallingford CT, 2010.
 
 ******************************************
 Gaussian 09:  EM64L-G09RevB.01 27-May-2010
                26-Jul-2016 
 ******************************************
 --------------------
 #p b3lyp 6-31+G* opt
 --------------------
 1/14=-1,18=20,19=15,26=3,38=1/1,3;
 2/9=110,12=2,17=6,18=5,40=1/2;
 3/5=1,6=6,7=11,11=2,16=1,25=1,30=1,71=1,74=-5/1,2,3;
 4//1;
 5/5=2,38=5/2;
 6/7=2,8=2,9=2,10=2,28=1/1;
 7//1,2,3,16;
 1/14=-1,18=20,19=15/3(2);
 2/9=110/2;
 99//99;
 2/9=110/2;
 3/5=1,6=6,7=11,11=2,16=1,25=1,30=1,71=1,74=-5/1,2,3;
 4/5=5,16=3/1;
 5/5=2,38=5/2;
 7//1,2,3,16;
 1/14=-1,18=20,19=15/3(-5);
 2/9=110/2;
 6/7=2,8=2,9=2,10=2,19=2,28=1/1;
 99/9=1/99;
 Leave Link    1 at Tue Jul 26 22:46:55 2016, MaxMem=          0 cpu:       0.4
 (Enter /opt/gaussian/g09-b01/g09/l101.exe)
 -----
 title
 -----
 Symbolic Z-matrix:
 Charge =  0 Multiplicity = 2
 Li                    3.942     6.198     11.773 
 O                     5.19319   8.17268   13.22555 
 O                     2.69081   4.22332   10.32045 
 O                     2.90683   5.7505    14.22155 
 O                     4.97717   6.6455    9.32445 
 O                     5.96267   4.73527   12.87542 
 O                     1.92133   7.66073   10.67058 
 C                     4.5538    7.97311   14.90226 
 C                     3.3302    4.42289   8.64374 
 C                     3.16148   7.38182   14.96584 
 C                     4.72252   5.01418   8.58016 
 C                     4.12806   4.73155   15.06709 
 C                     3.75594   7.66445   8.47891 
 C                     4.98426   3.8911    14.13702 
 C                     2.89974   8.5049    9.40898 
 C                     6.89535   5.95256   13.82386 
 C                     0.98865   6.44344   9.72214 
 C                     6.82597   7.37562   13.3082 
 C                     1.05803   5.02038   10.2378 
 H                     4.53223   8.93498   15.3705 
 H                     5.20442   7.28554   15.40111 
 H                     3.35177   3.46102   8.1755 
 H                     2.67958   5.11046   8.14489 
 H                     2.89233   7.30766   15.99878 
 H                     2.55867   8.04409   14.38025 
 H                     4.99167   5.08834   7.54722 
 H                     5.32533   4.35191   9.16575 
 H                     4.77309   5.37554   15.62754 
 H                     3.58493   4.04951   15.68736 
 H                     3.11091   7.02046   7.91846 
 H                     4.29907   8.34649   7.85864 
 H                     5.66587   3.33728   14.74824 
 H                     4.2778    3.31252   13.57929 
 H                     2.21813   9.05872   8.79776 
 H                     3.6062    9.08348   9.96671 
 H                     7.9224    5.65243   13.82533 
 H                     6.44925   5.971     14.79626 
 H                    -0.0384    6.74357   9.72067 
 H                     1.43475   6.425     8.74974 
 H                     7.44152   7.97569   13.94532 
 H                     7.14282   7.30707   12.28849 
 H                     0.44248   4.42031   9.60068 
 H                     0.74118   5.08893   11.25751 
 
 NAtoms=     43 NQM=     43 NQMF=      0 NMic=      0 NMicF=      0 NTot=     43.
                    Isotopes and Nuclear Properties:
 (Nuclear quadrupole moments (NQMom) in fm**2, nuclear magnetic moments (NMagM)
  in nuclear magnetons)

  Atom         1           2           3           4           5           6           7           8           9          10
 IAtWgt=           7          16          16          16          16          16          16          12          12          12
 AtmWgt=   7.0160045  15.9949146  15.9949146  15.9949146  15.9949146  15.9949146  15.9949146  12.0000000  12.0000000  12.0000000
 NucSpn=           3           0           0           0           0           0           0           0           0           0
 AtZEff=   0.0000000   0.0000000   0.0000000   0.0000000   0.0000000   0.0000000   0.0000000   0.0000000   0.0000000   0.0000000
 NQMom=   -4.0100000   0.0000000   0.0000000   0.0000000   0.0000000   0.0000000   0.0000000   0.0000000   0.0000000   0.0000000
 NMagM=    3.2564240   0.0000000   0.0000000   0.0000000   0.0000000   0.0000000   0.0000000   0.0000000   0.0000000   0.0000000

  Atom        11          12          13          14          15          16          17          18          19          20
 IAtWgt=          12          12          12          12          12          12          12          12          12           1
 AtmWgt=  12.0000000  12.0000000  12.0000000  12.0000000  12.0000000  12.0000000  12.0000000  12.0000000  12.0000000   1.0078250
 NucSpn=           0           0           0           0           0           0           0           0           0           1
 AtZEff=   0.0000000   0.0000000   0.0000000   0.0000000   0.0000000   0.0000000   0.0000000   0.0000000   0.0000000   0.0000000
 NQMom=    0.0000000   0.0000000   0.0000000   0.0000000   0.0000000   0.0000000   0.0000000   0.0000000   0.0000000   0.0000000
 NMagM=    0.0000000   0.0000000   0.0000000   0.0000000   0.0000000   0.0000000   0.0000000   0.0000000   0.0000000   2.7928460

  Atom        21          22          23          24          25          26          27          28          29          30
 IAtWgt=           1           1           1           1           1           1           1           1           1           1
 AtmWgt=   1.0078250   1.0078250   1.0078250   1.0078250   1.0078250   1.0078250   1.0078250   1.0078250   1.0078250   1.0078250
 NucSpn=           1           1           1           1           1           1           1           1           1           1
 AtZEff=   0.0000000   0.0000000   0.0000000   0.0000000   0.0000000   0.0000000   0.0000000   0.0000000   0.0000000   0.0000000
 NQMom=    0.0000000   0.0000000   0.0000000   0.0000000   0.0000000   0.0000000   0.0000000   0.0000000   0.0000000   0.0000000
 NMagM=    2.7928460   2.7928460   2.7928460   2.7928460   2.7928460   2.7928460   2.7928460   2.7928460   2.7928460   2.7928460

  Atom        31          32          33          34          35          36          37          38          39          40
 IAtWgt=           1           1           1           1           1           1           1           1           1           1
 AtmWgt=   1.0078250   1.0078250   1.0078250   1.0078250   1.0078250   1.0078250   1.0078250   1.0078250   1.0078250   1.0078250
 NucSpn=           1           1           1           1           1           1           1           1           1           1
 AtZEff=   0.0000000   0.0000000   0.0000000   0.0000000   0.0000000   0.0000000   0.0000000   0.0000000   0.0000000   0.0000000
 NQMom=    0.0000000   0.0000000   0.0000000   0.0000000   0.0000000   0.0000000   0.0000000   0.0000000   0.0000000   0.0000000
 NMagM=    2.7928460   2.7928460   2.7928460   2.7928460   2.7928460   2.7928460   2.7928460   2.7928460   2.7928460   2.7928460

  Atom        41          42          43
 IAtWgt=           1           1           1
 AtmWgt=   1.0078250   1.0078250   1.0078250
 NucSpn=           1           1           1
 AtZEff=   0.0000000   0.0000000   0.0000000
 NQMom=    0.0000000   0.0000000   0.0000000
 NMagM=    2.7928460   2.7928460   2.7928460
 Leave Link  101 at Tue Jul 26 22:46:55 2016, MaxMem= 6442450944 cpu:       0.7
 (Enter /opt/gaussian/g09-b01/g09/l103.exe)

 GradGradGradGradGradGradGradGradGradGradGradGradGradGradGradGradGradGrad
 Berny optimization.
 Initialization pass.
                           ----------------------------
                           !    Initial Parameters    !
                           ! (Angstroms and Degrees)  !
 --------------------------                            --------------------------
 ! Name  Definition              Value          Derivative Info.                !
 --------------------------------------------------------------------------------
 ! R1    R(1,2)                  2.7522         estimate D2E/DX2                !
 ! R2    R(1,3)                  2.7522         estimate D2E/DX2                !
 ! R3    R(1,4)                  2.6958         estimate D2E/DX2                !
 ! R4    R(1,5)                  2.6958         estimate D2E/DX2                !
 ! R5    R(1,6)                  2.7273         estimate D2E/DX2                !
 ! R6    R(1,7)                  2.7273         estimate D2E/DX2                !
 ! R7    R(1,10)                 3.4935         estimate D2E/DX2                !
 ! R8    R(1,11)                 3.4935         estimate D2E/DX2                !
 ! R9    R(1,14)                 3.4636         estimate D2E/DX2                !
 ! R10   R(1,15)                 3.4636         estimate D2E/DX2                !
 ! R11   R(1,18)                 3.4729         estimate D2E/DX2                !
 ! R12   R(1,19)                 3.4729         estimate D2E/DX2                !
 ! R13   R(1,25)                 3.4813         estimate D2E/DX2                !
 ! R14   R(1,27)                 3.4813         estimate D2E/DX2                !
 ! R15   R(1,33)                 3.4207         estimate D2E/DX2                !
 ! R16   R(1,35)                 3.4207         estimate D2E/DX2                !
 ! R17   R(1,41)                 3.4265         estimate D2E/DX2                !
 ! R18   R(1,43)                 3.4265         estimate D2E/DX2                !
 ! R19   R(2,8)                  1.8055         estimate D2E/DX2                !
 ! R20   R(2,18)                 1.8188         estimate D2E/DX2                !
 ! R21   R(3,9)                  1.8055         estimate D2E/DX2                !
 ! R22   R(3,19)                 1.8188         estimate D2E/DX2                !
 ! R23   R(4,10)                 1.8111         estimate D2E/DX2                !
 ! R24   R(4,12)                 1.8013         estimate D2E/DX2                !
 ! R25   R(5,11)                 1.8111         estimate D2E/DX2                !
 ! R26   R(5,13)                 1.8013         estimate D2E/DX2                !
 ! R27   R(6,14)                 1.806          estimate D2E/DX2                !
 ! R28   R(6,16)                 1.8031         estimate D2E/DX2                !
 ! R29   R(7,15)                 1.806          estimate D2E/DX2                !
 ! R30   R(7,17)                 1.8031         estimate D2E/DX2                !
 ! R31   R(8,10)                 1.514          estimate D2E/DX2                !
 ! R32   R(8,20)                 1.07           estimate D2E/DX2                !
 ! R33   R(8,21)                 1.07           estimate D2E/DX2                !
 ! R34   R(9,11)                 1.514          estimate D2E/DX2                !
 ! R35   R(9,22)                 1.07           estimate D2E/DX2                !
 ! R36   R(9,23)                 1.07           estimate D2E/DX2                !
 ! R37   R(10,24)                1.07           estimate D2E/DX2                !
 ! R38   R(10,25)                1.07           estimate D2E/DX2                !
 ! R39   R(11,26)                1.07           estimate D2E/DX2                !
 ! R40   R(11,27)                1.07           estimate D2E/DX2                !
 ! R41   R(12,14)                1.518          estimate D2E/DX2                !
 ! R42   R(12,28)                1.07           estimate D2E/DX2                !
 ! R43   R(12,29)                1.07           estimate D2E/DX2                !
 ! R44   R(13,15)                1.518          estimate D2E/DX2                !
 ! R45   R(13,30)                1.07           estimate D2E/DX2                !
 ! R46   R(13,31)                1.07           estimate D2E/DX2                !
 ! R47   R(14,32)                1.07           estimate D2E/DX2                !
 ! R48   R(14,33)                1.07           estimate D2E/DX2                !
 ! R49   R(15,34)                1.07           estimate D2E/DX2                !
 ! R50   R(15,35)                1.07           estimate D2E/DX2                !
 ! R51   R(16,18)                1.5152         estimate D2E/DX2                !
 ! R52   R(16,36)                1.07           estimate D2E/DX2                !
 ! R53   R(16,37)                1.07           estimate D2E/DX2                !
 ! R54   R(17,19)                1.5152         estimate D2E/DX2                !
 ! R55   R(17,38)                1.07           estimate D2E/DX2                !
 ! R56   R(17,39)                1.07           estimate D2E/DX2                !
 ! R57   R(18,40)                1.07           estimate D2E/DX2                !
 ! R58   R(18,41)                1.07           estimate D2E/DX2                !
 ! R59   R(19,42)                1.07           estimate D2E/DX2                !
 ! R60   R(19,43)                1.07           estimate D2E/DX2                !
 ! A1    A(2,1,4)               79.2981         estimate D2E/DX2                !
 ! A2    A(2,1,5)              100.7019         estimate D2E/DX2                !
 ! A3    A(2,1,6)               80.4824         estimate D2E/DX2                !
 ! A4    A(2,1,7)               99.5176         estimate D2E/DX2                !
 ! A5    A(2,1,10)              51.3983         estimate D2E/DX2                !
 ! A6    A(2,1,11)             128.6017         estimate D2E/DX2                !
 ! A7    A(2,1,14)              88.9028         estimate D2E/DX2                !
 ! A8    A(2,1,15)              91.0972         estimate D2E/DX2                !
 ! A9    A(2,1,19)             148.6622         estimate D2E/DX2                !
 ! A10   A(2,1,25)              53.4806         estimate D2E/DX2                !
 ! A11   A(2,1,27)             126.5194         estimate D2E/DX2                !
 ! A12   A(2,1,33)             106.3739         estimate D2E/DX2                !
 ! A13   A(2,1,35)              73.6261         estimate D2E/DX2                !
 ! A14   A(2,1,41)              42.5832         estimate D2E/DX2                !
 ! A15   A(2,1,43)             137.4168         estimate D2E/DX2                !
 ! A16   A(3,1,4)              100.7019         estimate D2E/DX2                !
 ! A17   A(3,1,5)               79.2981         estimate D2E/DX2                !
 ! A18   A(3,1,6)               99.5176         estimate D2E/DX2                !
 ! A19   A(3,1,7)               80.4824         estimate D2E/DX2                !
 ! A20   A(3,1,10)             128.6017         estimate D2E/DX2                !
 ! A21   A(3,1,11)              51.3983         estimate D2E/DX2                !
 ! A22   A(3,1,14)              91.0972         estimate D2E/DX2                !
 ! A23   A(3,1,15)              88.9028         estimate D2E/DX2                !
 ! A24   A(3,1,18)             148.6622         estimate D2E/DX2                !
 ! A25   A(3,1,25)             126.5194         estimate D2E/DX2                !
 ! A26   A(3,1,27)              53.4806         estimate D2E/DX2                !
 ! A27   A(3,1,33)              73.6261         estimate D2E/DX2                !
 ! A28   A(3,1,35)             106.3739         estimate D2E/DX2                !
 ! A29   A(3,1,41)             137.4168         estimate D2E/DX2                !
 ! A30   A(3,1,43)              42.5832         estimate D2E/DX2                !
 ! A31   A(4,1,6)               80.1149         estimate D2E/DX2                !
 ! A32   A(4,1,7)               99.8851         estimate D2E/DX2                !
 ! A33   A(4,1,11)             149.2773         estimate D2E/DX2                !
 ! A34   A(4,1,14)              52.0521         estimate D2E/DX2                !
 ! A35   A(4,1,15)             127.9479         estimate D2E/DX2                !
 ! A36   A(4,1,18)              88.4905         estimate D2E/DX2                !
 ! A37   A(4,1,19)              91.5095         estimate D2E/DX2                !
 ! A38   A(4,1,25)              41.8577         estimate D2E/DX2                !
 ! A39   A(4,1,27)             138.1423         estimate D2E/DX2                !
 ! A40   A(4,1,33)              54.4126         estimate D2E/DX2                !
 ! A41   A(4,1,35)             125.5874         estimate D2E/DX2                !
 ! A42   A(4,1,41)             106.009          estimate D2E/DX2                !
 ! A43   A(4,1,43)              73.991          estimate D2E/DX2                !
 ! A44   A(5,1,6)               99.8851         estimate D2E/DX2                !
 ! A45   A(5,1,7)               80.1149         estimate D2E/DX2                !
 ! A46   A(5,1,10)             149.2773         estimate D2E/DX2                !
 ! A47   A(5,1,14)             127.9479         estimate D2E/DX2                !
 ! A48   A(5,1,15)              52.0521         estimate D2E/DX2                !
 ! A49   A(5,1,18)              91.5095         estimate D2E/DX2                !
 ! A50   A(5,1,19)              88.4905         estimate D2E/DX2                !
 ! A51   A(5,1,25)             138.1423         estimate D2E/DX2                !
 ! A52   A(5,1,27)              41.8577         estimate D2E/DX2                !
 ! A53   A(5,1,33)             125.5874         estimate D2E/DX2                !
 ! A54   A(5,1,35)              54.4126         estimate D2E/DX2                !
 ! A55   A(5,1,41)              73.991          estimate D2E/DX2                !
 ! A56   A(5,1,43)             106.009          estimate D2E/DX2                !
 ! A57   A(6,1,10)              88.7306         estimate D2E/DX2                !
 ! A58   A(6,1,11)              91.2694         estimate D2E/DX2                !
 ! A59   A(6,1,15)             148.8773         estimate D2E/DX2                !
 ! A60   A(6,1,18)              52.2589         estimate D2E/DX2                !
 ! A61   A(6,1,19)             127.7411         estimate D2E/DX2                !
 ! A62   A(6,1,25)             106.0269         estimate D2E/DX2                !
 ! A63   A(6,1,27)              73.9731         estimate D2E/DX2                !
 ! A64   A(6,1,33)              42.3886         estimate D2E/DX2                !
 ! A65   A(6,1,35)             137.6114         estimate D2E/DX2                !
 ! A66   A(6,1,41)              54.5969         estimate D2E/DX2                !
 ! A67   A(6,1,43)             125.4031         estimate D2E/DX2                !
 ! A68   A(7,1,10)              91.2694         estimate D2E/DX2                !
 ! A69   A(7,1,11)              88.7306         estimate D2E/DX2                !
 ! A70   A(7,1,14)             148.8773         estimate D2E/DX2                !
 ! A71   A(7,1,18)             127.7411         estimate D2E/DX2                !
 ! A72   A(7,1,19)              52.2589         estimate D2E/DX2                !
 ! A73   A(7,1,25)              73.9731         estimate D2E/DX2                !
 ! A74   A(7,1,27)             106.0269         estimate D2E/DX2                !
 ! A75   A(7,1,33)             137.6114         estimate D2E/DX2                !
 ! A76   A(7,1,35)              42.3886         estimate D2E/DX2                !
 ! A77   A(7,1,41)             125.4031         estimate D2E/DX2                !
 ! A78   A(7,1,43)              54.5969         estimate D2E/DX2                !
 ! A79   A(10,1,14)             70.6792         estimate D2E/DX2                !
 ! A80   A(10,1,15)            109.3208         estimate D2E/DX2                !
 ! A81   A(10,1,18)             70.5262         estimate D2E/DX2                !
 ! A82   A(10,1,19)            109.4738         estimate D2E/DX2                !
 ! A83   A(10,1,27)            162.3521         estimate D2E/DX2                !
 ! A84   A(10,1,33)             79.9317         estimate D2E/DX2                !
 ! A85   A(10,1,35)            100.0683         estimate D2E/DX2                !
 ! A86   A(10,1,41)             87.7953         estimate D2E/DX2                !
 ! A87   A(10,1,43)             92.2047         estimate D2E/DX2                !
 ! A88   A(11,1,14)            109.3208         estimate D2E/DX2                !
 ! A89   A(11,1,15)             70.6792         estimate D2E/DX2                !
 ! A90   A(11,1,18)            109.4738         estimate D2E/DX2                !
 ! A91   A(11,1,19)             70.5262         estimate D2E/DX2                !
 ! A92   A(11,1,25)            162.3521         estimate D2E/DX2                !
 ! A93   A(11,1,33)            100.0683         estimate D2E/DX2                !
 ! A94   A(11,1,35)             79.9317         estimate D2E/DX2                !
 ! A95   A(11,1,41)             92.2047         estimate D2E/DX2                !
 ! A96   A(11,1,43)             87.7953         estimate D2E/DX2                !
 ! A97   A(14,1,18)             70.9886         estimate D2E/DX2                !
 ! A98   A(14,1,19)            109.0114         estimate D2E/DX2                !
 ! A99   A(14,1,25)             87.7991         estimate D2E/DX2                !
 ! A100  A(14,1,27)             92.2009         estimate D2E/DX2                !
 ! A101  A(14,1,35)            162.1312         estimate D2E/DX2                !
 ! A102  A(14,1,41)             80.3169         estimate D2E/DX2                !
 ! A103  A(14,1,43)             99.6831         estimate D2E/DX2                !
 ! A104  A(15,1,18)            109.0114         estimate D2E/DX2                !
 ! A105  A(15,1,19)             70.9886         estimate D2E/DX2                !
 ! A106  A(15,1,25)             92.2009         estimate D2E/DX2                !
 ! A107  A(15,1,27)             87.7991         estimate D2E/DX2                !
 ! A108  A(15,1,33)            162.1312         estimate D2E/DX2                !
 ! A109  A(15,1,41)             99.6831         estimate D2E/DX2                !
 ! A110  A(15,1,43)             80.3169         estimate D2E/DX2                !
 ! A111  A(18,1,25)             79.5775         estimate D2E/DX2                !
 ! A112  A(18,1,27)            100.4225         estimate D2E/DX2                !
 ! A113  A(18,1,33)             88.3433         estimate D2E/DX2                !
 ! A114  A(18,1,35)             91.6567         estimate D2E/DX2                !
 ! A115  A(18,1,43)            162.1729         estimate D2E/DX2                !
 ! A116  A(19,1,25)            100.4225         estimate D2E/DX2                !
 ! A117  A(19,1,27)             79.5775         estimate D2E/DX2                !
 ! A118  A(19,1,33)             91.6567         estimate D2E/DX2                !
 ! A119  A(19,1,35)             88.3433         estimate D2E/DX2                !
 ! A120  A(19,1,41)            162.1729         estimate D2E/DX2                !
 ! A121  A(25,1,33)             95.2127         estimate D2E/DX2                !
 ! A122  A(25,1,35)             84.7873         estimate D2E/DX2                !
 ! A123  A(25,1,41)             94.984          estimate D2E/DX2                !
 ! A124  A(25,1,43)             85.016          estimate D2E/DX2                !
 ! A125  A(27,1,33)             84.7873         estimate D2E/DX2                !
 ! A126  A(27,1,35)             95.2127         estimate D2E/DX2                !
 ! A127  A(27,1,41)             85.016          estimate D2E/DX2                !
 ! A128  A(27,1,43)             94.984          estimate D2E/DX2                !
 ! A129  A(33,1,41)             95.8478         estimate D2E/DX2                !
 ! A130  A(33,1,43)             84.1522         estimate D2E/DX2                !
 ! A131  A(35,1,41)             84.1522         estimate D2E/DX2                !
 ! A132  A(35,1,43)             95.8478         estimate D2E/DX2                !
 ! A133  A(1,2,8)              104.4668         estimate D2E/DX2                !
 ! A134  A(8,2,18)             103.1362         estimate D2E/DX2                !
 ! A135  A(1,3,9)              104.4668         estimate D2E/DX2                !
 ! A136  A(9,3,19)             103.1362         estimate D2E/DX2                !
 ! A137  A(1,4,12)             105.0655         estimate D2E/DX2                !
 ! A138  A(10,4,12)            102.7851         estimate D2E/DX2                !
 ! A139  A(1,5,13)             105.0655         estimate D2E/DX2                !
 ! A140  A(11,5,13)            102.7851         estimate D2E/DX2                !
 ! A141  A(1,6,16)             103.5199         estimate D2E/DX2                !
 ! A142  A(14,6,16)            103.1999         estimate D2E/DX2                !
 ! A143  A(1,7,17)             103.5199         estimate D2E/DX2                !
 ! A144  A(15,7,17)            103.1999         estimate D2E/DX2                !
 ! A145  A(2,8,10)             114.0685         estimate D2E/DX2                !
 ! A146  A(2,8,20)             108.3099         estimate D2E/DX2                !
 ! A147  A(2,8,21)             106.7768         estimate D2E/DX2                !
 ! A148  A(10,8,20)            108.3102         estimate D2E/DX2                !
 ! A149  A(10,8,21)            106.7768         estimate D2E/DX2                !
 ! A150  A(20,8,21)            112.6988         estimate D2E/DX2                !
 ! A151  A(3,9,11)             114.0685         estimate D2E/DX2                !
 ! A152  A(3,9,22)             108.3099         estimate D2E/DX2                !
 ! A153  A(3,9,23)             106.7768         estimate D2E/DX2                !
 ! A154  A(11,9,22)            108.3102         estimate D2E/DX2                !
 ! A155  A(11,9,23)            106.7768         estimate D2E/DX2                !
 ! A156  A(22,9,23)            112.6988         estimate D2E/DX2                !
 ! A157  A(1,10,8)              83.5982         estimate D2E/DX2                !
 ! A158  A(1,10,24)            156.2031         estimate D2E/DX2                !
 ! A159  A(4,10,8)             117.6344         estimate D2E/DX2                !
 ! A160  A(4,10,24)            107.3935         estimate D2E/DX2                !
 ! A161  A(4,10,25)            104.6778         estimate D2E/DX2                !
 ! A162  A(8,10,24)            107.3934         estimate D2E/DX2                !
 ! A163  A(8,10,25)            104.6779         estimate D2E/DX2                !
 ! A164  A(24,10,25)           115.4365         estimate D2E/DX2                !
 ! A165  A(1,11,9)              83.5982         estimate D2E/DX2                !
 ! A166  A(1,11,26)            156.2031         estimate D2E/DX2                !
 ! A167  A(5,11,9)             117.6344         estimate D2E/DX2                !
 ! A168  A(5,11,26)            107.3935         estimate D2E/DX2                !
 ! A169  A(5,11,27)            104.6778         estimate D2E/DX2                !
 ! A170  A(9,11,26)            107.3934         estimate D2E/DX2                !
 ! A171  A(9,11,27)            104.6779         estimate D2E/DX2                !
 ! A172  A(26,11,27)           115.4365         estimate D2E/DX2                !
 ! A173  A(4,12,14)            114.0778         estimate D2E/DX2                !
 ! A174  A(4,12,28)            108.3076         estimate D2E/DX2                !
 ! A175  A(4,12,29)            106.7711         estimate D2E/DX2                !
 ! A176  A(14,12,28)           108.3076         estimate D2E/DX2                !
 ! A177  A(14,12,29)           106.7714         estimate D2E/DX2                !
 ! A178  A(28,12,29)           112.7059         estimate D2E/DX2                !
 ! A179  A(5,13,15)            114.0778         estimate D2E/DX2                !
 ! A180  A(5,13,30)            108.3076         estimate D2E/DX2                !
 ! A181  A(5,13,31)            106.7711         estimate D2E/DX2                !
 ! A182  A(15,13,30)           108.3076         estimate D2E/DX2                !
 ! A183  A(15,13,31)           106.7714         estimate D2E/DX2                !
 ! A184  A(30,13,31)           112.7059         estimate D2E/DX2                !
 ! A185  A(1,14,12)             83.0908         estimate D2E/DX2                !
 ! A186  A(1,14,32)            157.8661         estimate D2E/DX2                !
 ! A187  A(6,14,12)            118.3444         estimate D2E/DX2                !
 ! A188  A(6,14,32)            107.2098         estimate D2E/DX2                !
 ! A189  A(6,14,33)            104.2601         estimate D2E/DX2                !
 ! A190  A(12,14,32)           107.2094         estimate D2E/DX2                !
 ! A191  A(12,14,33)           104.2607         estimate D2E/DX2                !
 ! A192  A(32,14,33)           116.0059         estimate D2E/DX2                !
 ! A193  A(1,15,13)             83.0908         estimate D2E/DX2                !
 ! A194  A(1,15,34)            157.8661         estimate D2E/DX2                !
 ! A195  A(7,15,13)            118.3444         estimate D2E/DX2                !
 ! A196  A(7,15,34)            107.2098         estimate D2E/DX2                !
 ! A197  A(7,15,35)            104.2601         estimate D2E/DX2                !
 ! A198  A(13,15,34)           107.2094         estimate D2E/DX2                !
 ! A199  A(13,15,35)           104.2607         estimate D2E/DX2                !
 ! A200  A(34,15,35)           116.0059         estimate D2E/DX2                !
 ! A201  A(6,16,18)            115.5536         estimate D2E/DX2                !
 ! A202  A(6,16,36)            107.93           estimate D2E/DX2                !
 ! A203  A(6,16,37)            105.9025         estimate D2E/DX2                !
 ! A204  A(18,16,36)           107.9301         estimate D2E/DX2                !
 ! A205  A(18,16,37)           105.9028         estimate D2E/DX2                !
 ! A206  A(36,16,37)           113.8136         estimate D2E/DX2                !
 ! A207  A(7,17,19)            115.5536         estimate D2E/DX2                !
 ! A208  A(7,17,38)            107.93           estimate D2E/DX2                !
 ! A209  A(7,17,39)            105.9025         estimate D2E/DX2                !
 ! A210  A(19,17,38)           107.9301         estimate D2E/DX2                !
 ! A211  A(19,17,39)           105.9028         estimate D2E/DX2                !
 ! A212  A(38,17,39)           113.8136         estimate D2E/DX2                !
 ! A213  A(1,18,16)             82.5302         estimate D2E/DX2                !
 ! A214  A(1,18,40)            158.608          estimate D2E/DX2                !
 ! A215  A(2,18,16)            117.9144         estimate D2E/DX2                !
 ! A216  A(2,18,40)            107.3213         estimate D2E/DX2                !
 ! A217  A(2,18,41)            104.5131         estimate D2E/DX2                !
 ! A218  A(16,18,40)           107.321          estimate D2E/DX2                !
 ! A219  A(16,18,41)           104.5131         estimate D2E/DX2                !
 ! A220  A(40,18,41)           115.6599         estimate D2E/DX2                !
 ! A221  A(1,19,17)             82.5302         estimate D2E/DX2                !
 ! A222  A(1,19,42)            158.608          estimate D2E/DX2                !
 ! A223  A(3,19,17)            117.9144         estimate D2E/DX2                !
 ! A224  A(3,19,42)            107.3213         estimate D2E/DX2                !
 ! A225  A(3,19,43)            104.5131         estimate D2E/DX2                !
 ! A226  A(17,19,42)           107.321          estimate D2E/DX2                !
 ! A227  A(17,19,43)           104.5131         estimate D2E/DX2                !
 ! A228  A(42,19,43)           115.6599         estimate D2E/DX2                !
 ! D1    D(4,1,2,8)             -0.4812         estimate D2E/DX2                !
 ! D2    D(5,1,2,8)            179.5188         estimate D2E/DX2                !
 ! D3    D(6,1,2,8)            -82.1169         estimate D2E/DX2                !
 ! D4    D(7,1,2,8)             97.8831         estimate D2E/DX2                !
 ! D5    D(10,1,2,8)            13.9164         estimate D2E/DX2                !
 ! D6    D(11,1,2,8)          -166.0836         estimate D2E/DX2                !
 ! D7    D(14,1,2,8)           -51.995          estimate D2E/DX2                !
 ! D8    D(15,1,2,8)           128.005          estimate D2E/DX2                !
 ! D9    D(19,1,2,8)            74.5189         estimate D2E/DX2                !
 ! D10   D(25,1,2,8)            36.0788         estimate D2E/DX2                !
 ! D11   D(27,1,2,8)          -143.9212         estimate D2E/DX2                !
 ! D12   D(33,1,2,8)           -48.1969         estimate D2E/DX2                !
 ! D13   D(35,1,2,8)           131.8031         estimate D2E/DX2                !
 ! D14   D(41,1,2,8)          -128.8288         estimate D2E/DX2                !
 ! D15   D(43,1,2,8)            51.1712         estimate D2E/DX2                !
 ! D16   D(8,2,3,9)           -180.0            estimate D2E/DX2                !
 ! D17   D(4,1,3,9)           -179.5188         estimate D2E/DX2                !
 ! D18   D(5,1,3,9)              0.4812         estimate D2E/DX2                !
 ! D19   D(6,1,3,9)            -97.8831         estimate D2E/DX2                !
 ! D20   D(7,1,3,9)             82.1169         estimate D2E/DX2                !
 ! D21   D(10,1,3,9)           166.0836         estimate D2E/DX2                !
 ! D22   D(11,1,3,9)           -13.9164         estimate D2E/DX2                !
 ! D23   D(14,1,3,9)          -128.005          estimate D2E/DX2                !
 ! D24   D(15,1,3,9)            51.995          estimate D2E/DX2                !
 ! D25   D(18,1,3,9)           -74.5189         estimate D2E/DX2                !
 ! D26   D(25,1,3,9)           143.9212         estimate D2E/DX2                !
 ! D27   D(27,1,3,9)           -36.0788         estimate D2E/DX2                !
 ! D28   D(33,1,3,9)          -131.8031         estimate D2E/DX2                !
 ! D29   D(35,1,3,9)            48.1969         estimate D2E/DX2                !
 ! D30   D(41,1,3,9)           -51.1712         estimate D2E/DX2                !
 ! D31   D(43,1,3,9)           128.8288         estimate D2E/DX2                !
 ! D32   D(2,1,4,12)           -83.8395         estimate D2E/DX2                !
 ! D33   D(3,1,4,12)            96.1605         estimate D2E/DX2                !
 ! D34   D(6,1,4,12)            -1.7647         estimate D2E/DX2                !
 ! D35   D(7,1,4,12)           178.2353         estimate D2E/DX2                !
 ! D36   D(11,1,4,12)           73.8046         estimate D2E/DX2                !
 ! D37   D(14,1,4,12)           13.2064         estimate D2E/DX2                !
 ! D38   D(15,1,4,12)         -166.7936         estimate D2E/DX2                !
 ! D39   D(18,1,4,12)          -53.6716         estimate D2E/DX2                !
 ! D40   D(19,1,4,12)          126.3284         estimate D2E/DX2                !
 ! D41   D(25,1,4,12)         -129.6796         estimate D2E/DX2                !
 ! D42   D(27,1,4,12)           50.3204         estimate D2E/DX2                !
 ! D43   D(33,1,4,12)           35.3712         estimate D2E/DX2                !
 ! D44   D(35,1,4,12)         -144.6288         estimate D2E/DX2                !
 ! D45   D(41,1,4,12)          -50.329          estimate D2E/DX2                !
 ! D46   D(43,1,4,12)          129.671          estimate D2E/DX2                !
 ! D47   D(12,4,5,13)          180.0            estimate D2E/DX2                !
 ! D48   D(2,1,5,13)           -96.1605         estimate D2E/DX2                !
 ! D49   D(3,1,5,13)            83.8395         estimate D2E/DX2                !
 ! D50   D(6,1,5,13)          -178.2353         estimate D2E/DX2                !
 ! D51   D(7,1,5,13)             1.7647         estimate D2E/DX2                !
 ! D52   D(10,1,5,13)          -73.8046         estimate D2E/DX2                !
 ! D53   D(14,1,5,13)          166.7936         estimate D2E/DX2                !
 ! D54   D(15,1,5,13)          -13.2064         estimate D2E/DX2                !
 ! D55   D(18,1,5,13)         -126.3284         estimate D2E/DX2                !
 ! D56   D(19,1,5,13)           53.6716         estimate D2E/DX2                !
 ! D57   D(25,1,5,13)          -50.3204         estimate D2E/DX2                !
 ! D58   D(27,1,5,13)          129.6796         estimate D2E/DX2                !
 ! D59   D(33,1,5,13)          144.6288         estimate D2E/DX2                !
 ! D60   D(35,1,5,13)          -35.3712         estimate D2E/DX2                !
 ! D61   D(41,1,5,13)         -129.671          estimate D2E/DX2                !
 ! D62   D(43,1,5,13)           50.329          estimate D2E/DX2                !
 ! D63   D(2,1,6,16)            -1.7028         estimate D2E/DX2                !
 ! D64   D(3,1,6,16)           178.2972         estimate D2E/DX2                !
 ! D65   D(4,1,6,16)           -82.3849         estimate D2E/DX2                !
 ! D66   D(5,1,6,16)            97.6151         estimate D2E/DX2                !
 ! D67   D(10,1,6,16)          -52.7226         estimate D2E/DX2                !
 ! D68   D(11,1,6,16)          127.2774         estimate D2E/DX2                !
 ! D69   D(15,1,6,16)           74.4036         estimate D2E/DX2                !
 ! D70   D(18,1,6,16)           13.4159         estimate D2E/DX2                !
 ! D71   D(19,1,6,16)         -166.5841         estimate D2E/DX2                !
 ! D72   D(25,1,6,16)          -49.1738         estimate D2E/DX2                !
 ! D73   D(27,1,6,16)          130.8262         estimate D2E/DX2                !
 ! D74   D(33,1,6,16)         -129.1246         estimate D2E/DX2                !
 ! D75   D(35,1,6,16)           50.8754         estimate D2E/DX2                !
 ! D76   D(41,1,6,16)           35.4746         estimate D2E/DX2                !
 ! D77   D(43,1,6,16)         -144.5254         estimate D2E/DX2                !
 ! D78   D(16,6,7,17)          180.0            estimate D2E/DX2                !
 ! D79   D(2,1,7,17)          -178.2972         estimate D2E/DX2                !
 ! D80   D(3,1,7,17)             1.7028         estimate D2E/DX2                !
 ! D81   D(4,1,7,17)           -97.6151         estimate D2E/DX2                !
 ! D82   D(5,1,7,17)            82.3849         estimate D2E/DX2                !
 ! D83   D(10,1,7,17)         -127.2774         estimate D2E/DX2                !
 ! D84   D(11,1,7,17)           52.7226         estimate D2E/DX2                !
 ! D85   D(14,1,7,17)          -74.4036         estimate D2E/DX2                !
 ! D86   D(18,1,7,17)          166.5841         estimate D2E/DX2                !
 ! D87   D(19,1,7,17)          -13.4159         estimate D2E/DX2                !
 ! D88   D(25,1,7,17)         -130.8262         estimate D2E/DX2                !
 ! D89   D(27,1,7,17)           49.1738         estimate D2E/DX2                !
 ! D90   D(33,1,7,17)          -50.8754         estimate D2E/DX2                !
 ! D91   D(35,1,7,17)          129.1246         estimate D2E/DX2                !
 ! D92   D(41,1,7,17)          144.5254         estimate D2E/DX2                !
 ! D93   D(43,1,7,17)          -35.4746         estimate D2E/DX2                !
 ! D94   D(2,1,10,8)           -16.2284         estimate D2E/DX2                !
 ! D95   D(2,1,10,24)         -135.6396         estimate D2E/DX2                !
 ! D96   D(3,1,10,8)           163.7716         estimate D2E/DX2                !
 ! D97   D(3,1,10,24)           44.3604         estimate D2E/DX2                !
 ! D98   D(5,1,10,8)           -44.7987         estimate D2E/DX2                !
 ! D99   D(5,1,10,24)         -164.21           estimate D2E/DX2                !
 ! D100  D(6,1,10,8)            62.5886         estimate D2E/DX2                !
 ! D101  D(6,1,10,24)          -56.8226         estimate D2E/DX2                !
 ! D102  D(7,1,10,8)          -117.4114         estimate D2E/DX2                !
 ! D103  D(7,1,10,24)          123.1774         estimate D2E/DX2                !
 ! D104  D(14,1,10,8)           88.4822         estimate D2E/DX2                !
 ! D105  D(14,1,10,24)         -30.929          estimate D2E/DX2                !
 ! D106  D(15,1,10,8)          -91.5178         estimate D2E/DX2                !
 ! D107  D(15,1,10,24)         149.071          estimate D2E/DX2                !
 ! D108  D(18,1,10,8)           12.4967         estimate D2E/DX2                !
 ! D109  D(18,1,10,24)        -106.9145         estimate D2E/DX2                !
 ! D110  D(19,1,10,8)         -167.5033         estimate D2E/DX2                !
 ! D111  D(19,1,10,24)          73.0855         estimate D2E/DX2                !
 ! D112  D(27,1,10,8)           73.9057         estimate D2E/DX2                !
 ! D113  D(27,1,10,24)         -45.5055         estimate D2E/DX2                !
 ! D114  D(33,1,10,8)          104.3099         estimate D2E/DX2                !
 ! D115  D(33,1,10,24)         -15.1014         estimate D2E/DX2                !
 ! D116  D(35,1,10,8)          -75.6901         estimate D2E/DX2                !
 ! D117  D(35,1,10,24)         164.8986         estimate D2E/DX2                !
 ! D118  D(41,1,10,8)            7.9719         estimate D2E/DX2                !
 ! D119  D(41,1,10,24)        -111.4393         estimate D2E/DX2                !
 ! D120  D(43,1,10,8)         -172.0281         estimate D2E/DX2                !
 ! D121  D(43,1,10,24)          68.5607         estimate D2E/DX2                !
 ! D122  D(8,10,11,9)          180.0            estimate D2E/DX2                !
 ! D123  D(8,10,11,26)         -60.5888         estimate D2E/DX2                !
 ! D124  D(24,10,11,9)          60.5888         estimate D2E/DX2                !
 ! D125  D(24,10,11,26)        180.0            estimate D2E/DX2                !
 ! D126  D(2,1,11,9)          -163.7716         estimate D2E/DX2                !
 ! D127  D(2,1,11,26)          -44.3604         estimate D2E/DX2                !
 ! D128  D(3,1,11,9)            16.2284         estimate D2E/DX2                !
 ! D129  D(3,1,11,26)          135.6396         estimate D2E/DX2                !
 ! D130  D(4,1,11,9)            44.7987         estimate D2E/DX2                !
 ! D131  D(4,1,11,26)          164.21           estimate D2E/DX2                !
 ! D132  D(6,1,11,9)           117.4114         estimate D2E/DX2                !
 ! D133  D(6,1,11,26)         -123.1774         estimate D2E/DX2                !
 ! D134  D(7,1,11,9)           -62.5886         estimate D2E/DX2                !
 ! D135  D(7,1,11,26)           56.8226         estimate D2E/DX2                !
 ! D136  D(14,1,11,9)           91.5178         estimate D2E/DX2                !
 ! D137  D(14,1,11,26)        -149.071          estimate D2E/DX2                !
 ! D138  D(15,1,11,9)          -88.4822         estimate D2E/DX2                !
 ! D139  D(15,1,11,26)          30.929          estimate D2E/DX2                !
 ! D140  D(18,1,11,9)          167.5033         estimate D2E/DX2                !
 ! D141  D(18,1,11,26)         -73.0855         estimate D2E/DX2                !
 ! D142  D(19,1,11,9)          -12.4967         estimate D2E/DX2                !
 ! D143  D(19,1,11,26)         106.9145         estimate D2E/DX2                !
 ! D144  D(25,1,11,9)          -73.9057         estimate D2E/DX2                !
 ! D145  D(25,1,11,26)          45.5055         estimate D2E/DX2                !
 ! D146  D(33,1,11,9)           75.6901         estimate D2E/DX2                !
 ! D147  D(33,1,11,26)        -164.8986         estimate D2E/DX2                !
 ! D148  D(35,1,11,9)         -104.3099         estimate D2E/DX2                !
 ! D149  D(35,1,11,26)          15.1014         estimate D2E/DX2                !
 ! D150  D(41,1,11,9)          172.0281         estimate D2E/DX2                !
 ! D151  D(41,1,11,26)         -68.5607         estimate D2E/DX2                !
 ! D152  D(43,1,11,9)           -7.9719         estimate D2E/DX2                !
 ! D153  D(43,1,11,26)         111.4393         estimate D2E/DX2                !
 ! D154  D(2,1,14,12)           61.9672         estimate D2E/DX2                !
 ! D155  D(2,1,14,32)          -57.5765         estimate D2E/DX2                !
 ! D156  D(3,1,14,12)         -118.0328         estimate D2E/DX2                !
 ! D157  D(3,1,14,32)          122.4235         estimate D2E/DX2                !
 ! D158  D(4,1,14,12)          -15.2887         estimate D2E/DX2                !
 ! D159  D(4,1,14,32)         -134.8324         estimate D2E/DX2                !
 ! D160  D(5,1,14,12)          164.7113         estimate D2E/DX2                !
 ! D161  D(5,1,14,32)           45.1676         estimate D2E/DX2                !
 ! D162  D(7,1,14,12)          -44.7858         estimate D2E/DX2                !
 ! D163  D(7,1,14,32)         -164.3296         estimate D2E/DX2                !
 ! D164  D(10,1,14,12)          12.8524         estimate D2E/DX2                !
 ! D165  D(10,1,14,32)        -106.6914         estimate D2E/DX2                !
 ! D166  D(11,1,14,12)        -167.1476         estimate D2E/DX2                !
 ! D167  D(11,1,14,32)          73.3086         estimate D2E/DX2                !
 ! D168  D(18,1,14,12)          88.2059         estimate D2E/DX2                !
 ! D169  D(18,1,14,32)         -31.3378         estimate D2E/DX2                !
 ! D170  D(19,1,14,12)         -91.7941         estimate D2E/DX2                !
 ! D171  D(19,1,14,32)         148.6622         estimate D2E/DX2                !
 ! D172  D(25,1,14,12)           8.4733         estimate D2E/DX2                !
 ! D173  D(25,1,14,32)        -111.0705         estimate D2E/DX2                !
 ! D174  D(27,1,14,12)        -171.5267         estimate D2E/DX2                !
 ! D175  D(27,1,14,32)          68.9295         estimate D2E/DX2                !
 ! D176  D(35,1,14,12)          73.9212         estimate D2E/DX2                !
 ! D177  D(35,1,14,32)         -45.6225         estimate D2E/DX2                !
 ! D178  D(41,1,14,12)         103.9105         estimate D2E/DX2                !
 ! D179  D(41,1,14,32)         -15.6332         estimate D2E/DX2                !
 ! D180  D(43,1,14,12)         -76.0895         estimate D2E/DX2                !
 ! D181  D(43,1,14,32)         164.3668         estimate D2E/DX2                !
 ! D182  D(12,14,15,13)        180.0            estimate D2E/DX2                !
 ! D183  D(12,14,15,34)        -60.4562         estimate D2E/DX2                !
 ! D184  D(32,14,15,13)         60.4562         estimate D2E/DX2                !
 ! D185  D(32,14,15,34)        180.0            estimate D2E/DX2                !
 ! D186  D(2,1,15,13)          118.0328         estimate D2E/DX2                !
 ! D187  D(2,1,15,34)         -122.4235         estimate D2E/DX2                !
 ! D188  D(3,1,15,13)          -61.9672         estimate D2E/DX2                !
 ! D189  D(3,1,15,34)           57.5765         estimate D2E/DX2                !
 ! D190  D(4,1,15,13)         -164.7113         estimate D2E/DX2                !
 ! D191  D(4,1,15,34)          -45.1676         estimate D2E/DX2                !
 ! D192  D(5,1,15,13)           15.2887         estimate D2E/DX2                !
 ! D193  D(5,1,15,34)          134.8324         estimate D2E/DX2                !
 ! D194  D(6,1,15,13)           44.7858         estimate D2E/DX2                !
 ! D195  D(6,1,15,34)          164.3296         estimate D2E/DX2                !
 ! D196  D(10,1,15,13)         167.1476         estimate D2E/DX2                !
 ! D197  D(10,1,15,34)         -73.3086         estimate D2E/DX2                !
 ! D198  D(11,1,15,13)         -12.8524         estimate D2E/DX2                !
 ! D199  D(11,1,15,34)         106.6914         estimate D2E/DX2                !
 ! D200  D(18,1,15,13)          91.7941         estimate D2E/DX2                !
 ! D201  D(18,1,15,34)        -148.6622         estimate D2E/DX2                !
 ! D202  D(19,1,15,13)         -88.2059         estimate D2E/DX2                !
 ! D203  D(19,1,15,34)          31.3378         estimate D2E/DX2                !
 ! D204  D(25,1,15,13)         171.5267         estimate D2E/DX2                !
 ! D205  D(25,1,15,34)         -68.9295         estimate D2E/DX2                !
 ! D206  D(27,1,15,13)          -8.4733         estimate D2E/DX2                !
 ! D207  D(27,1,15,34)         111.0705         estimate D2E/DX2                !
 ! D208  D(33,1,15,13)         -73.9212         estimate D2E/DX2                !
 ! D209  D(33,1,15,34)          45.6225         estimate D2E/DX2                !
 ! D210  D(41,1,15,13)          76.0895         estimate D2E/DX2                !
 ! D211  D(41,1,15,34)        -164.3668         estimate D2E/DX2                !
 ! D212  D(43,1,15,13)        -103.9105         estimate D2E/DX2                !
 ! D213  D(43,1,15,34)          15.6332         estimate D2E/DX2                !
 ! D214  D(3,1,18,16)          -45.3518         estimate D2E/DX2                !
 ! D215  D(3,1,18,40)         -164.5958         estimate D2E/DX2                !
 ! D216  D(4,1,18,16)           62.9428         estimate D2E/DX2                !
 ! D217  D(4,1,18,40)          -56.3012         estimate D2E/DX2                !
 ! D218  D(5,1,18,16)         -117.0572         estimate D2E/DX2                !
 ! D219  D(5,1,18,40)          123.6988         estimate D2E/DX2                !
 ! D220  D(6,1,18,16)          -15.709          estimate D2E/DX2                !
 ! D221  D(6,1,18,40)         -134.953          estimate D2E/DX2                !
 ! D222  D(7,1,18,16)          164.291          estimate D2E/DX2                !
 ! D223  D(7,1,18,40)           45.047          estimate D2E/DX2                !
 ! D224  D(10,1,18,16)          88.413          estimate D2E/DX2                !
 ! D225  D(10,1,18,40)         -30.831          estimate D2E/DX2                !
 ! D226  D(11,1,18,16)         -91.587          estimate D2E/DX2                !
 ! D227  D(11,1,18,40)         149.169          estimate D2E/DX2                !
 ! D228  D(14,1,18,16)          12.8518         estimate D2E/DX2                !
 ! D229  D(14,1,18,40)        -106.3922         estimate D2E/DX2                !
 ! D230  D(15,1,18,16)        -167.1482         estimate D2E/DX2                !
 ! D231  D(15,1,18,40)          73.6078         estimate D2E/DX2                !
 ! D232  D(25,1,18,16)         104.1168         estimate D2E/DX2                !
 ! D233  D(25,1,18,40)         -15.1272         estimate D2E/DX2                !
 ! D234  D(27,1,18,16)         -75.8832         estimate D2E/DX2                !
 ! D235  D(27,1,18,40)         164.8728         estimate D2E/DX2                !
 ! D236  D(33,1,18,16)           8.508          estimate D2E/DX2                !
 ! D237  D(33,1,18,40)        -110.736          estimate D2E/DX2                !
 ! D238  D(35,1,18,16)        -171.492          estimate D2E/DX2                !
 ! D239  D(35,1,18,40)          69.264          estimate D2E/DX2                !
 ! D240  D(43,1,18,16)          73.4912         estimate D2E/DX2                !
 ! D241  D(43,1,18,40)         -45.7528         estimate D2E/DX2                !
 ! D242  D(16,18,19,17)        180.0            estimate D2E/DX2                !
 ! D243  D(16,18,19,42)        -60.756          estimate D2E/DX2                !
 ! D244  D(40,18,19,17)         60.756          estimate D2E/DX2                !
 ! D245  D(40,18,19,42)       -180.0            estimate D2E/DX2                !
 ! D246  D(2,1,19,17)           45.3518         estimate D2E/DX2                !
 ! D247  D(2,1,19,42)          164.5958         estimate D2E/DX2                !
 ! D248  D(4,1,19,17)          117.0572         estimate D2E/DX2                !
 ! D249  D(4,1,19,42)         -123.6988         estimate D2E/DX2                !
 ! D250  D(5,1,19,17)          -62.9428         estimate D2E/DX2                !
 ! D251  D(5,1,19,42)           56.3012         estimate D2E/DX2                !
 ! D252  D(6,1,19,17)         -164.291          estimate D2E/DX2                !
 ! D253  D(6,1,19,42)          -45.047          estimate D2E/DX2                !
 ! D254  D(7,1,19,17)           15.709          estimate D2E/DX2                !
 ! D255  D(7,1,19,42)          134.953          estimate D2E/DX2                !
 ! D256  D(10,1,19,17)          91.587          estimate D2E/DX2                !
 ! D257  D(10,1,19,42)        -149.169          estimate D2E/DX2                !
 ! D258  D(11,1,19,17)         -88.413          estimate D2E/DX2                !
 ! D259  D(11,1,19,42)          30.831          estimate D2E/DX2                !
 ! D260  D(14,1,19,17)         167.1482         estimate D2E/DX2                !
 ! D261  D(14,1,19,42)         -73.6078         estimate D2E/DX2                !
 ! D262  D(15,1,19,17)         -12.8518         estimate D2E/DX2                !
 ! D263  D(15,1,19,42)         106.3922         estimate D2E/DX2                !
 ! D264  D(25,1,19,17)          75.8832         estimate D2E/DX2                !
 ! D265  D(25,1,19,42)        -164.8728         estimate D2E/DX2                !
 ! D266  D(27,1,19,17)        -104.1168         estimate D2E/DX2                !
 ! D267  D(27,1,19,42)          15.1272         estimate D2E/DX2                !
 ! D268  D(33,1,19,17)         171.492          estimate D2E/DX2                !
 ! D269  D(33,1,19,42)         -69.264          estimate D2E/DX2                !
 ! D270  D(35,1,19,17)          -8.508          estimate D2E/DX2                !
 ! D271  D(35,1,19,42)         110.736          estimate D2E/DX2                !
 ! D272  D(41,1,19,17)         -73.4912         estimate D2E/DX2                !
 ! D273  D(41,1,19,42)          45.7528         estimate D2E/DX2                !
 ! D274  D(1,2,8,10)           -28.3594         estimate D2E/DX2                !
 ! D275  D(1,2,8,20)          -149.0387         estimate D2E/DX2                !
 ! D276  D(1,2,8,21)            89.3404         estimate D2E/DX2                !
 ! D277  D(18,2,8,10)         -129.0205         estimate D2E/DX2                !
 ! D278  D(18,2,8,20)          110.3003         estimate D2E/DX2                !
 ! D279  D(18,2,8,21)          -11.3207         estimate D2E/DX2                !
 ! D280  D(8,2,18,16)           53.6513         estimate D2E/DX2                !
 ! D281  D(8,2,18,40)          -67.5577         estimate D2E/DX2                !
 ! D282  D(8,2,18,41)          169.1246         estimate D2E/DX2                !
 ! D283  D(1,3,9,11)            28.3594         estimate D2E/DX2                !
 ! D284  D(1,3,9,22)           149.0387         estimate D2E/DX2                !
 ! D285  D(1,3,9,23)           -89.3404         estimate D2E/DX2                !
 ! D286  D(19,3,9,11)          129.0205         estimate D2E/DX2                !
 ! D287  D(19,3,9,22)         -110.3003         estimate D2E/DX2                !
 ! D288  D(19,3,9,23)           11.3207         estimate D2E/DX2                !
 ! D289  D(9,3,19,17)          -53.6513         estimate D2E/DX2                !
 ! D290  D(9,3,19,42)           67.5577         estimate D2E/DX2                !
 ! D291  D(9,3,19,43)         -169.1246         estimate D2E/DX2                !
 ! D292  D(12,4,10,8)           55.81           estimate D2E/DX2                !
 ! D293  D(12,4,10,24)         -65.3612         estimate D2E/DX2                !
 ! D294  D(12,4,10,25)         171.455          estimate D2E/DX2                !
 ! D295  D(1,4,12,14)          -26.7581         estimate D2E/DX2                !
 ! D296  D(1,4,12,28)           93.9223         estimate D2E/DX2                !
 ! D297  D(1,4,12,29)         -144.4529         estimate D2E/DX2                !
 ! D298  D(10,4,12,14)        -130.7244         estimate D2E/DX2                !
 ! D299  D(10,4,12,28)         -10.0441         estimate D2E/DX2                !
 ! D300  D(10,4,12,29)         111.5808         estimate D2E/DX2                !
 ! D301  D(13,5,11,9)          -55.81           estimate D2E/DX2                !
 ! D302  D(13,5,11,26)          65.3612         estimate D2E/DX2                !
 ! D303  D(13,5,11,27)        -171.455          estimate D2E/DX2                !
 ! D304  D(1,5,13,15)           26.7581         estimate D2E/DX2                !
 ! D305  D(1,5,13,30)          -93.9223         estimate D2E/DX2                !
 ! D306  D(1,5,13,31)          144.4529         estimate D2E/DX2                !
 ! D307  D(11,5,13,15)         130.7244         estimate D2E/DX2                !
 ! D308  D(11,5,13,30)          10.0441         estimate D2E/DX2                !
 ! D309  D(11,5,13,31)        -111.5808         estimate D2E/DX2                !
 ! D310  D(16,6,14,12)          53.248          estimate D2E/DX2                !
 ! D311  D(16,6,14,32)         -68.018          estimate D2E/DX2                !
 ! D312  D(16,6,14,33)         168.4551         estimate D2E/DX2                !
 ! D313  D(1,6,16,18)          -27.7833         estimate D2E/DX2                !
 ! D314  D(1,6,16,36)         -148.6712         estimate D2E/DX2                !
 ! D315  D(1,6,16,37)           89.0901         estimate D2E/DX2                !
 ! D316  D(14,6,16,18)        -129.0573         estimate D2E/DX2                !
 ! D317  D(14,6,16,36)         110.0548         estimate D2E/DX2                !
 ! D318  D(14,6,16,37)         -12.1839         estimate D2E/DX2                !
 ! D319  D(17,7,15,13)         -53.248          estimate D2E/DX2                !
 ! D320  D(17,7,15,34)          68.018          estimate D2E/DX2                !
 ! D321  D(17,7,15,35)        -168.4551         estimate D2E/DX2                !
 ! D322  D(1,7,17,19)           27.7833         estimate D2E/DX2                !
 ! D323  D(1,7,17,38)          148.6712         estimate D2E/DX2                !
 ! D324  D(1,7,17,39)          -89.0901         estimate D2E/DX2                !
 ! D325  D(15,7,17,19)         129.0573         estimate D2E/DX2                !
 ! D326  D(15,7,17,38)        -110.0548         estimate D2E/DX2                !
 ! D327  D(15,7,17,39)          12.1839         estimate D2E/DX2                !
 ! D328  D(2,8,10,1)            21.3839         estimate D2E/DX2                !
 ! D329  D(2,8,10,4)            58.5997         estimate D2E/DX2                !
 ! D330  D(2,8,10,24)          179.771          estimate D2E/DX2                !
 ! D331  D(2,8,10,25)          -57.0452         estimate D2E/DX2                !
 ! D332  D(20,8,10,1)          142.063          estimate D2E/DX2                !
 ! D333  D(20,8,10,4)          179.2788         estimate D2E/DX2                !
 ! D334  D(20,8,10,24)         -59.55           estimate D2E/DX2                !
 ! D335  D(20,8,10,25)          63.6338         estimate D2E/DX2                !
 ! D336  D(21,8,10,1)          -96.3159         estimate D2E/DX2                !
 ! D337  D(21,8,10,4)          -59.1001         estimate D2E/DX2                !
 ! D338  D(21,8,10,24)          62.0711         estimate D2E/DX2                !
 ! D339  D(21,8,10,25)        -174.7451         estimate D2E/DX2                !
 ! D340  D(3,9,11,1)           -21.3839         estimate D2E/DX2                !
 ! D341  D(3,9,11,5)           -58.5997         estimate D2E/DX2                !
 ! D342  D(3,9,11,26)         -179.771          estimate D2E/DX2                !
 ! D343  D(3,9,11,27)           57.0452         estimate D2E/DX2                !
 ! D344  D(22,9,11,1)         -142.063          estimate D2E/DX2                !
 ! D345  D(22,9,11,5)         -179.2788         estimate D2E/DX2                !
 ! D346  D(22,9,11,26)          59.55           estimate D2E/DX2                !
 ! D347  D(22,9,11,27)         -63.6338         estimate D2E/DX2                !
 ! D348  D(23,9,11,1)           96.3159         estimate D2E/DX2                !
 ! D349  D(23,9,11,5)           59.1001         estimate D2E/DX2                !
 ! D350  D(23,9,11,26)         -62.0711         estimate D2E/DX2                !
 ! D351  D(23,9,11,27)         174.7451         estimate D2E/DX2                !
 ! D352  D(4,12,14,1)           19.9284         estimate D2E/DX2                !
 ! D353  D(4,12,14,6)           58.5936         estimate D2E/DX2                !
 ! D354  D(4,12,14,32)         179.8597         estimate D2E/DX2                !
 ! D355  D(4,12,14,33)         -56.6132         estimate D2E/DX2                !
 ! D356  D(28,12,14,1)        -100.7519         estimate D2E/DX2                !
 ! D357  D(28,12,14,6)         -62.0867         estimate D2E/DX2                !
 ! D358  D(28,12,14,32)         59.1794         estimate D2E/DX2                !
 ! D359  D(28,12,14,33)       -177.2935         estimate D2E/DX2                !
 ! D360  D(29,12,14,1)         137.6231         estimate D2E/DX2                !
 ! D361  D(29,12,14,6)         176.2882         estimate D2E/DX2                !
 ! D362  D(29,12,14,32)        -62.4456         estimate D2E/DX2                !
 ! D363  D(29,12,14,33)         61.0814         estimate D2E/DX2                !
 ! D364  D(5,13,15,1)          -19.9284         estimate D2E/DX2                !
 ! D365  D(5,13,15,7)          -58.5936         estimate D2E/DX2                !
 ! D366  D(5,13,15,34)        -179.8597         estimate D2E/DX2                !
 ! D367  D(5,13,15,35)          56.6132         estimate D2E/DX2                !
 ! D368  D(30,13,15,1)         100.7519         estimate D2E/DX2                !
 ! D369  D(30,13,15,7)          62.0867         estimate D2E/DX2                !
 ! D370  D(30,13,15,34)        -59.1794         estimate D2E/DX2                !
 ! D371  D(30,13,15,35)        177.2935         estimate D2E/DX2                !
 ! D372  D(31,13,15,1)        -137.6231         estimate D2E/DX2                !
 ! D373  D(31,13,15,7)        -176.2882         estimate D2E/DX2                !
 ! D374  D(31,13,15,34)         62.4456         estimate D2E/DX2                !
 ! D375  D(31,13,15,35)        -61.0814         estimate D2E/DX2                !
 ! D376  D(6,16,18,1)           21.0361         estimate D2E/DX2                !
 ! D377  D(6,16,18,2)           60.3531         estimate D2E/DX2                !
 ! D378  D(6,16,18,40)        -178.4378         estimate D2E/DX2                !
 ! D379  D(6,16,18,41)         -55.1202         estimate D2E/DX2                !
 ! D380  D(36,16,18,1)         141.9239         estimate D2E/DX2                !
 ! D381  D(36,16,18,2)        -178.7591         estimate D2E/DX2                !
 ! D382  D(36,16,18,40)        -57.5499         estimate D2E/DX2                !
 ! D383  D(36,16,18,41)         65.7676         estimate D2E/DX2                !
 ! D384  D(37,16,18,1)         -95.8372         estimate D2E/DX2                !
 ! D385  D(37,16,18,2)         -56.5202         estimate D2E/DX2                !
 ! D386  D(37,16,18,40)         64.6889         estimate D2E/DX2                !
 ! D387  D(37,16,18,41)       -171.9935         estimate D2E/DX2                !
 ! D388  D(7,17,19,1)          -21.0361         estimate D2E/DX2                !
 ! D389  D(7,17,19,3)          -60.3531         estimate D2E/DX2                !
 ! D390  D(7,17,19,42)         178.4378         estimate D2E/DX2                !
 ! D391  D(7,17,19,43)          55.1202         estimate D2E/DX2                !
 ! D392  D(38,17,19,1)        -141.9239         estimate D2E/DX2                !
 ! D393  D(38,17,19,3)         178.7591         estimate D2E/DX2                !
 ! D394  D(38,17,19,42)         57.5499         estimate D2E/DX2                !
 ! D395  D(38,17,19,43)        -65.7676         estimate D2E/DX2                !
 ! D396  D(39,17,19,1)          95.8372         estimate D2E/DX2                !
 ! D397  D(39,17,19,3)          56.5202         estimate D2E/DX2                !
 ! D398  D(39,17,19,42)        -64.6889         estimate D2E/DX2                !
 ! D399  D(39,17,19,43)        171.9935         estimate D2E/DX2                !
 --------------------------------------------------------------------------------
 Trust Radius=3.00D-01 FncErr=1.00D-07 GrdErr=1.00D-06
 Number of steps in this run=    258 maximum allowed number of steps=    258.
 GradGradGradGradGradGradGradGradGradGradGradGradGradGradGradGradGradGrad

 Leave Link  103 at Tue Jul 26 22:46:55 2016, MaxMem= 6442450944 cpu:       0.2
 (Enter /opt/gaussian/g09-b01/g09/l202.exe)
                          Input orientation:                          
 ---------------------------------------------------------------------
 Center     Atomic      Atomic             Coordinates (Angstroms)
 Number     Number       Type             X           Y           Z
 ---------------------------------------------------------------------
      1          3           0        3.942000    6.198000   11.773000
      2          8           0        5.193190    8.172680   13.225550
      3          8           0        2.690810    4.223320   10.320450
      4          8           0        2.906830    5.750500   14.221550
      5          8           0        4.977170    6.645500    9.324450
      6          8           0        5.962670    4.735270   12.875420
      7          8           0        1.921330    7.660730   10.670580
      8          6           0        4.553800    7.973110   14.902260
      9          6           0        3.330200    4.422890    8.643740
     10          6           0        3.161480    7.381820   14.965840
     11          6           0        4.722520    5.014180    8.580160
     12          6           0        4.128060    4.731550   15.067090
     13          6           0        3.755940    7.664450    8.478910
     14          6           0        4.984260    3.891100   14.137020
     15          6           0        2.899740    8.504900    9.408980
     16          6           0        6.895350    5.952560   13.823860
     17          6           0        0.988650    6.443440    9.722140
     18          6           0        6.825970    7.375620   13.308200
     19          6           0        1.058030    5.020380   10.237800
     20          1           0        4.532230    8.934980   15.370500
     21          1           0        5.204420    7.285540   15.401110
     22          1           0        3.351770    3.461020    8.175500
     23          1           0        2.679580    5.110460    8.144890
     24          1           0        2.892330    7.307660   15.998780
     25          1           0        2.558670    8.044090   14.380250
     26          1           0        4.991670    5.088340    7.547220
     27          1           0        5.325330    4.351910    9.165750
     28          1           0        4.773090    5.375540   15.627540
     29          1           0        3.584930    4.049510   15.687360
     30          1           0        3.110910    7.020460    7.918460
     31          1           0        4.299070    8.346490    7.858640
     32          1           0        5.665870    3.337280   14.748240
     33          1           0        4.277800    3.312520   13.579290
     34          1           0        2.218130    9.058720    8.797760
     35          1           0        3.606200    9.083480    9.966710
     36          1           0        7.922400    5.652430   13.825330
     37          1           0        6.449250    5.971000   14.796260
     38          1           0       -0.038400    6.743570    9.720670
     39          1           0        1.434750    6.425000    8.749740
     40          1           0        7.441520    7.975690   13.945320
     41          1           0        7.142820    7.307070   12.288490
     42          1           0        0.442480    4.420310    9.600680
     43          1           0        0.741180    5.088930   11.257510
 ---------------------------------------------------------------------
                    Distance matrix (angstroms):
                    1          2          3          4          5
     1  Li   0.000000
     2  O    2.752224   0.000000
     3  O    2.752224   5.504449   0.000000
     4  O    2.695780   3.476552   4.194940   0.000000
     5  O    2.695780   4.194940   3.476552   5.391560   0.000000
     6  O    2.727273   3.539842   4.182706   3.490117   4.150853
     7  O    2.727273   4.182706   3.539842   4.150853   3.490117
     8  C    3.649326   1.805548   6.206822   2.848837   5.749240
     9  C    3.649326   6.206822   1.805548   5.749240   2.848837
    10  C    3.493547   2.789608   5.637136   1.811082   5.971949
    11  C    3.493547   5.637136   2.789608   5.971949   1.811082
    12  C    3.610557   4.045633   4.985436   1.801277   6.112455
    13  C    3.610557   4.985436   4.045633   6.112455   1.801277
    14  C    3.463623   4.382506   4.465030   2.789306   5.545052
    15  C    3.463623   4.465030   4.382506   5.545052   2.789306
    16  C    3.603962   2.860814   5.739539   4.013387   4.940068
    17  C    3.603962   5.739539   2.860814   4.940068   4.013387
    18  C    3.472882   1.818820   5.996932   4.339917   4.452123
    19  C    3.472882   5.996932   1.818820   4.452123   4.339917
    20  H    4.558666   2.370397   7.147977   3.755386   6.480309
    21  H    3.992447   2.349512   6.442712   3.004435   6.114498
    22  H    4.558666   7.147977   2.370397   6.480309   3.755386
    23  H    3.992447   6.442712   2.349512   6.114498   3.004435
    24  H    4.493369   3.705809   6.465075   2.362944   7.023653
    25  H    3.481293   2.879334   5.576533   2.325286   5.776358
    26  H    4.493369   6.465075   3.705809   7.023653   2.362944
    27  H    3.481293   5.576533   2.879334   5.776358   2.325286
    28  H    4.027981   3.710799   5.816245   2.366501   6.432992
    29  H    4.479478   5.064340   5.443655   2.345589   7.011713
    30  H    4.027981   5.816245   3.710799   6.432992   2.366501
    31  H    4.479478   5.443655   5.064340   7.011713   2.345589
    32  H    4.472974   5.091474   5.407529   3.703152   6.390315
    33  H    3.420737   4.958248   3.737396   2.869809   5.449912
    34  H    4.472974   5.407529   5.091474   6.390315   3.703152
    35  H    3.420737   3.737396   4.958248   5.449912   2.869809
    36  H    4.511462   3.762975   6.457250   5.032152   5.469780
    37  H    3.934200   2.981981   6.100257   3.595504   5.706371
    38  H    4.511462   6.457250   3.762975   5.469780   5.032152
    39  H    3.934200   6.100257   2.981981   5.706371   3.595504
    40  H    4.486178   2.368937   7.056147   5.058773   5.403227
    41  H    3.426516   2.329897   5.762212   4.909505   3.730047
    42  H    4.486178   7.056147   2.368937   5.403227   5.058773
    43  H    3.426516   5.762212   2.329897   3.730047   4.909505
                    6          7          8          9         10
     6  O    0.000000
     7  O    5.454545   0.000000
     8  C    4.071437   4.993455   0.000000
     9  C    4.993455   4.071437   7.298653   0.000000
    10  C    4.384147   4.479400   1.514008   6.982312   0.000000
    11  C    4.479400   4.384147   6.982312   1.514008   6.987093
    12  C    2.858186   5.725299   3.273551   6.480068   2.822846
    13  C    5.725299   2.858186   6.480068   3.273551   6.520240
    14  C    1.805974   5.967232   4.175367   5.761496   4.024251
    15  C    5.967232   1.805974   5.761496   4.175367   5.675254
    16  C    1.803115   6.132038   3.275427   6.471772   4.157967
    17  C    6.132038   1.803115   6.471772   3.275427   5.753098
    18  C    2.811411   5.576183   2.839151   6.534234   4.021977
    19  C    5.576183   2.811411   6.534234   2.839151   5.688169
    20  H    5.090103   5.525374   1.070004   8.188598   2.110690
    21  H    3.668505   5.770387   1.070005   7.574267   2.091013
    22  H    5.525374   5.090103   8.188598   1.070004   7.843316
    23  H    5.770387   3.668505   7.574267   1.070005   7.205322
    24  H    5.079326   5.427450   2.098967   7.912663   1.070003
    25  H    4.979962   3.783493   2.063511   6.827583   1.069999
    26  H    5.427450   5.079326   7.912663   2.098967   7.977817
    27  H    3.783493   4.979962   6.827583   2.063511   6.892289
    28  H    3.065813   6.158415   2.705825   7.194646   2.657121
    29  H    3.745787   6.401293   4.117005   7.058108   3.435723
    30  H    6.158415   3.065813   7.194646   2.705825   7.056820
    31  H    6.401293   3.745787   7.058108   4.117005   7.262024
    32  H    2.355827   7.024323   4.769837   6.625619   4.762103
    33  H    2.314830   5.737637   4.852579   5.146894   4.441609
    34  H    7.024323   2.355827   6.625619   4.769837   6.461201
    35  H    5.737637   2.314830   5.146894   4.852579   5.299502
    36  H    2.363060   7.070966   4.229988   7.031994   5.192101
    37  H    2.335255   6.354407   2.759060   7.069556   3.581704
    38  H    7.070966   2.363060   7.031994   4.229988   6.177249
    39  H    6.354407   2.335255   7.069556   2.759060   6.522040
    40  H    3.719140   6.426167   3.042149   7.591580   4.439919
    41  H    2.889878   5.477834   3.738774   6.011553   4.798423
    42  H    6.426167   3.719140   7.591580   3.042149   6.704360
    43  H    5.477834   2.889878   6.011553   3.738774   4.986673
                   11         12         13         14         15
    11  C    0.000000
    12  C    6.520240   0.000000
    13  C    2.822846   7.221114   0.000000
    14  C    5.675254   1.518046   6.910944   0.000000
    15  C    4.024251   6.910944   1.518046   6.927246   0.000000
    16  C    5.753098   3.270226   6.430782   2.828419   6.478465
    17  C    4.157967   6.430782   3.270226   6.478465   2.828419
    18  C    5.688169   4.166956   5.729795   4.027495   5.647519
    19  C    4.021977   5.729795   4.166956   5.647519   4.027495
    20  H    7.843316   4.233702   7.050595   5.212152   6.195943
    21  H    7.205322   2.791592   7.082268   3.628859   6.534831
    22  H    2.110690   7.050595   4.233702   6.195943   5.212152
    23  H    2.091013   7.082268   2.791592   6.534831   3.628859
    24  H    7.977817   3.005232   7.577702   4.417602   6.697679
    25  H    6.892289   3.729297   6.033523   4.815597   5.004218
    26  H    1.070003   7.577702   3.005232   6.697679   4.417602
    27  H    1.069999   6.033523   3.729297   5.004218   4.815597
    28  H    7.056820   1.069996   7.574735   2.114191   7.209218
    29  H    7.262024   1.070002   8.065903   2.094462   7.729039
    30  H    2.657121   7.574735   1.069996   7.209218   2.114191
    31  H    3.435723   8.065903   1.070002   7.729039   2.094462
    32  H    6.461201   2.100122   7.853453   1.069999   7.928649
    33  H    5.299502   2.061460   6.724991   1.070002   6.800834
    34  H    4.762103   7.853453   2.100122   7.928649   1.069999
    35  H    4.441609   6.724991   2.061460   6.800834   1.070002
    36  H    6.177249   4.097195   7.070489   3.439782   7.271028
    37  H    6.522040   2.645280   7.073231   2.628075   6.931267
    38  H    5.192101   7.070489   4.097195   7.271028   3.439782
    39  H    3.581704   7.073231   2.645280   6.931267   2.628075
    40  H    6.704360   4.770936   6.600152   4.770613   6.440979
    41  H    4.986673   4.841766   5.109949   4.443568   5.265938
    42  H    4.439919   6.600152   4.770936   6.440979   4.770613
    43  H    4.798423   5.109949   4.841766   5.265938   4.443568
                   16         17         18         19         20
    16  C    0.000000
    17  C    7.207924   0.000000
    18  C    1.515196   6.913978   0.000000
    19  C    6.913978   1.515196   6.945764   0.000000
    20  H    4.107464   7.118195   3.456288   7.330673   0.000000
    21  H    2.669044   7.122679   2.649115   6.998805   1.781412
    22  H    7.118195   4.107464   7.330673   3.456288   9.117332
    23  H    7.122679   2.669044   6.998805   2.649115   8.382643
    24  H    4.752972   6.615670   4.766273   6.464147   2.394197
[...]
    35  H(1)              -0.00019      -0.84075      -0.30000      -0.28044
    36  H(1)              -0.00026      -1.16012      -0.41396      -0.38698
    37  H(1)              -0.00033      -1.48684      -0.53054      -0.49596
    38  H(1)              -0.00026      -1.16012      -0.41396      -0.38698
    39  H(1)              -0.00033      -1.48684      -0.53054      -0.49596
    40  H(1)              -0.00022      -0.99517      -0.35510      -0.33195
    41  H(1)              -0.00019      -0.83863      -0.29924      -0.27974
    42  H(1)              -0.00022      -0.99517      -0.35510      -0.33195
    43  H(1)              -0.00019      -0.83863      -0.29924      -0.27974
 --------------------------------------------------------
       Center         ----  Spin Dipole Couplings  ----
                      3XX-RR        3YY-RR        3ZZ-RR
 --------------------------------------------------------
     1   Atom       -0.000082     -0.000160      0.000241
     2   Atom        0.000092     -0.000490      0.000398
     3   Atom        0.000092     -0.000490      0.000398
     4   Atom       -0.001095     -0.001694      0.002790
     5   Atom       -0.001095     -0.001694      0.002790
     6   Atom       -0.000143     -0.000147      0.000290
     7   Atom       -0.000143     -0.000147      0.000290
     8   Atom        0.000297     -0.003713      0.003417
     9   Atom        0.000297     -0.003713      0.003417
    10   Atom        0.005183     -0.002477     -0.002706
    11   Atom        0.005183     -0.002477     -0.002706
    12   Atom       -0.005791     -0.005404      0.011194
    13   Atom       -0.005791     -0.005404      0.011194
    14   Atom       -0.005001      0.009803     -0.004801
    15   Atom       -0.005001      0.009803     -0.004801
    16   Atom       -0.000424     -0.002542      0.002966
    17   Atom       -0.000424     -0.002542      0.002966
    18   Atom        0.003633      0.000159     -0.003792
    19   Atom        0.003633      0.000159     -0.003792
    20   Atom       -0.000936      0.002195     -0.001259
    21   Atom       -0.000084      0.000102     -0.000019
    22   Atom       -0.000936      0.002195     -0.001259
    23   Atom       -0.000084      0.000102     -0.000019
    24   Atom       -0.000847     -0.000965      0.001812
    25   Atom       -0.000221     -0.000416      0.000638
    26   Atom       -0.000847     -0.000965      0.001812
    27   Atom       -0.000221     -0.000416      0.000638
    28   Atom        0.000662     -0.000293     -0.000369
    29   Atom        0.000956      0.000386     -0.001342
    30   Atom        0.000662     -0.000293     -0.000369
    31   Atom        0.000956      0.000386     -0.001342
    32   Atom        0.000682     -0.000807      0.000125
    33   Atom        0.000262     -0.000853      0.000591
    34   Atom        0.000682     -0.000807      0.000125
    35   Atom        0.000262     -0.000853      0.000591
    36   Atom        0.000791     -0.001005      0.000214
    37   Atom       -0.001626     -0.001832      0.003458
    38   Atom        0.000791     -0.001005      0.000214
    39   Atom       -0.001626     -0.001832      0.003458
    40   Atom       -0.000782     -0.000098      0.000880
    41   Atom       -0.001159     -0.000893      0.002052
    42   Atom       -0.000782     -0.000098      0.000880
    43   Atom       -0.001159     -0.000893      0.002052
 --------------------------------------------------------
                        XY            XZ            YZ
 --------------------------------------------------------
     1   Atom        0.000000      0.000175     -0.000002
     2   Atom        0.001527      0.001662      0.001248
     3   Atom        0.001527      0.001662      0.001248
     4   Atom       -0.000171     -0.000888      0.000073
     5   Atom       -0.000171     -0.000888      0.000073
     6   Atom       -0.001361      0.001773     -0.001296
     7   Atom       -0.001361      0.001773     -0.001296
     8   Atom        0.003969      0.006550      0.004863
     9   Atom        0.003969      0.006550      0.004863
    10   Atom       -0.004862     -0.004834      0.002660
    11   Atom       -0.004862     -0.004834      0.002660
    12   Atom       -0.000719     -0.000974      0.000007
    13   Atom       -0.000719     -0.000974      0.000007
    14   Atom       -0.001641     -0.000240      0.000107
    15   Atom       -0.001641     -0.000240      0.000107
    16   Atom       -0.003244      0.007254     -0.004946
    17   Atom       -0.003244      0.007254     -0.004946
    18   Atom        0.006477     -0.003287     -0.002840
    19   Atom        0.006477     -0.003287     -0.002840
    20   Atom       -0.001155      0.000207     -0.000614
    21   Atom       -0.001955      0.001848     -0.002212
    22   Atom       -0.001155      0.000207     -0.000614
    23   Atom       -0.001955      0.001848     -0.002212
    24   Atom        0.000095     -0.000182     -0.000788
    25   Atom       -0.000471      0.001275     -0.001028
    26   Atom        0.000095     -0.000182     -0.000788
    27   Atom       -0.000471      0.001275     -0.001028
    28   Atom        0.002004      0.002129      0.001818
    29   Atom        0.001997     -0.000106     -0.000054
    30   Atom        0.002004      0.002129      0.001818
    31   Atom        0.001997     -0.000106     -0.000054
    32   Atom       -0.000704      0.001396     -0.000356
    33   Atom        0.000669      0.001222      0.000845
    34   Atom       -0.000704      0.001396     -0.000356
    35   Atom        0.000669      0.001222      0.000845
    36   Atom       -0.000838     -0.001838      0.000686
    37   Atom       -0.000059     -0.001738      0.000403
    38   Atom       -0.000838     -0.001838      0.000686
    39   Atom       -0.000059     -0.001738      0.000403
    40   Atom        0.000609      0.000854      0.001143
    41   Atom       -0.000195     -0.000104      0.000187
    42   Atom        0.000609      0.000854      0.001143
    43   Atom       -0.000195     -0.000104      0.000187
 --------------------------------------------------------


 ---------------------------------------------------------------------------------
              Anisotropic Spin Dipole Couplings in Principal Axis System
 ---------------------------------------------------------------------------------

       Atom             a.u.   MegaHertz   Gauss  10(-4) cm-1        Axes

              Baa    -0.0002    -0.033    -0.012    -0.011 -0.5193  0.8228  0.2311
     1 Li(7)  Bbb    -0.0002    -0.033    -0.012    -0.011  0.7545  0.5684 -0.3281
              Bcc     0.0003     0.066     0.024     0.022  0.4013 -0.0039  0.9159
 
              Baa    -0.0018     0.128     0.046     0.043 -0.6938  0.7095  0.1236
     2 O(17)  Bbb    -0.0012     0.090     0.032     0.030 -0.3814 -0.5075  0.7727
              Bcc     0.0030    -0.218    -0.078    -0.073  0.6109  0.4889  0.6227
 
              Baa    -0.0018     0.128     0.046     0.043 -0.6938  0.7095  0.1236
     3 O(17)  Bbb    -0.0012     0.090     0.032     0.030 -0.3814 -0.5075  0.7727
              Bcc     0.0030    -0.218    -0.078    -0.073  0.6109  0.4889  0.6227
 
              Baa    -0.0017     0.126     0.045     0.042  0.3118  0.9491  0.0458
     4 O(17)  Bbb    -0.0012     0.090     0.032     0.030  0.9259 -0.3143  0.2098
              Bcc     0.0030    -0.216    -0.077    -0.072 -0.2135  0.0230  0.9767
 
              Baa    -0.0017     0.126     0.045     0.042  0.3118  0.9491  0.0458
     5 O(17)  Bbb    -0.0012     0.090     0.032     0.030  0.9259 -0.3143  0.2098
              Bcc     0.0030    -0.216    -0.077    -0.072 -0.2135  0.0230  0.9767
 
              Baa    -0.0018     0.127     0.045     0.042  0.8035  0.2419 -0.5440
     6 O(17)  Bbb    -0.0012     0.089     0.032     0.030  0.1271  0.8229  0.5538
              Bcc     0.0030    -0.216    -0.077    -0.072  0.5816 -0.5141  0.6304
 
              Baa    -0.0018     0.127     0.045     0.042  0.8035  0.2419 -0.5440
     7 O(17)  Bbb    -0.0012     0.089     0.032     0.030  0.1271  0.8229  0.5538
              Bcc     0.0030    -0.216    -0.077    -0.072  0.5816 -0.5141  0.6304
 
              Baa    -0.0064    -0.853    -0.304    -0.284 -0.2885  0.9202 -0.2646
     8 C(13)  Bbb    -0.0049    -0.654    -0.233    -0.218  0.7669  0.0566 -0.6393
              Bcc     0.0112     1.506     0.538     0.502  0.5733  0.3873  0.7220
 
              Baa    -0.0064    -0.853    -0.304    -0.284 -0.2885  0.9202 -0.2646
     9 C(13)  Bbb    -0.0049    -0.654    -0.233    -0.218  0.7669  0.0566 -0.6393
              Bcc     0.0112     1.506     0.538     0.502  0.5733  0.3873  0.7220
 
              Baa    -0.0053    -0.706    -0.252    -0.236  0.0773 -0.6145  0.7851
    10 C(13)  Bbb    -0.0047    -0.628    -0.224    -0.209  0.5651  0.6758  0.4733
              Bcc     0.0099     1.334     0.476     0.445  0.8214 -0.4071 -0.3995
 
              Baa    -0.0053    -0.706    -0.252    -0.236  0.0773 -0.6145  0.7851
    11 C(13)  Bbb    -0.0047    -0.628    -0.224    -0.209  0.5651  0.6758  0.4733
              Bcc     0.0099     1.334     0.476     0.445  0.8214 -0.4071 -0.3995
 
              Baa    -0.0064    -0.856    -0.305    -0.285  0.8034  0.5938  0.0443
    12 C(13)  Bbb    -0.0049    -0.654    -0.233    -0.218 -0.5927  0.8046 -0.0363
              Bcc     0.0113     1.510     0.539     0.504 -0.0572  0.0029  0.9984
 
              Baa    -0.0064    -0.856    -0.305    -0.285  0.8034  0.5938  0.0443
    13 C(13)  Bbb    -0.0049    -0.654    -0.233    -0.218 -0.5927  0.8046 -0.0363
              Bcc     0.0113     1.510     0.539     0.504 -0.0572  0.0029  0.9984
 
              Baa    -0.0053    -0.710    -0.253    -0.237  0.9006  0.0949  0.4242
    14 C(13)  Bbb    -0.0047    -0.630    -0.225    -0.210 -0.4208 -0.0543  0.9055
              Bcc     0.0100     1.340     0.478     0.447 -0.1090  0.9940  0.0090
 
              Baa    -0.0053    -0.710    -0.253    -0.237  0.9006  0.0949  0.4242
    15 C(13)  Bbb    -0.0047    -0.630    -0.225    -0.210 -0.4208 -0.0543  0.9055
              Bcc     0.0100     1.340     0.478     0.447 -0.1090  0.9940  0.0090
 
              Baa    -0.0064    -0.854    -0.305    -0.285 -0.6539  0.3275  0.6820
    16 C(13)  Bbb    -0.0049    -0.654    -0.233    -0.218  0.5066  0.8591  0.0732
              Bcc     0.0112     1.508     0.538     0.503  0.5619 -0.3934  0.7277
 
              Baa    -0.0064    -0.854    -0.305    -0.285 -0.6539  0.3275  0.6820
    17 C(13)  Bbb    -0.0049    -0.654    -0.233    -0.218  0.5066  0.8591  0.0732
              Bcc     0.0112     1.508     0.538     0.503  0.5619 -0.3934  0.7277
 
              Baa    -0.0053    -0.709    -0.253    -0.236 -0.0666  0.5229  0.8498
    18 C(13)  Bbb    -0.0047    -0.629    -0.224    -0.210  0.6540 -0.6204  0.4330
              Bcc     0.0100     1.338     0.477     0.446  0.7536  0.5846 -0.3006
 
              Baa    -0.0053    -0.709    -0.253    -0.236 -0.0666  0.5229  0.8498
    19 C(13)  Bbb    -0.0047    -0.629    -0.224    -0.210  0.6540 -0.6204  0.4330
              Bcc     0.0100     1.338     0.477     0.446  0.7536  0.5846 -0.3006
 
              Baa    -0.0014    -0.729    -0.260    -0.243 -0.1397  0.1242  0.9824
    20 H(1)   Bbb    -0.0013    -0.702    -0.251    -0.234  0.9409  0.3258  0.0926
              Bcc     0.0027     1.431     0.511     0.477 -0.3086  0.9372 -0.1624
 
              Baa    -0.0022    -1.160    -0.414    -0.387  0.0856  0.7311  0.6769
    21 H(1)   Bbb    -0.0018    -0.984    -0.351    -0.328  0.8319  0.3214 -0.4524
              Bcc     0.0040     2.144     0.765     0.715 -0.5483  0.6018 -0.5807
 
              Baa    -0.0014    -0.729    -0.260    -0.243 -0.1397  0.1242  0.9824
    22 H(1)   Bbb    -0.0013    -0.702    -0.251    -0.234  0.9409  0.3258  0.0926
              Bcc     0.0027     1.431     0.511     0.477 -0.3086  0.9372 -0.1624
 
              Baa    -0.0022    -1.160    -0.414    -0.387  0.0856  0.7311  0.6769
    23 H(1)   Bbb    -0.0018    -0.984    -0.351    -0.328  0.8319  0.3214 -0.4524
              Bcc     0.0040     2.144     0.765     0.715 -0.5483  0.6018 -0.5807
 
              Baa    -0.0012    -0.629    -0.225    -0.210 -0.1415  0.9594  0.2441
    24 H(1)   Bbb    -0.0009    -0.456    -0.163    -0.152  0.9875  0.1195  0.1027
              Bcc     0.0020     1.085     0.387     0.362 -0.0694 -0.2556  0.9643
 
              Baa    -0.0013    -0.670    -0.239    -0.223 -0.5933  0.4688  0.6543
    25 H(1)   Bbb    -0.0008    -0.427    -0.152    -0.142  0.6238  0.7815  0.0057
              Bcc     0.0021     1.096     0.391     0.366  0.5087 -0.4116  0.7562
 
              Baa    -0.0012    -0.629    -0.225    -0.210 -0.1415  0.9594  0.2441
    26 H(1)   Bbb    -0.0009    -0.456    -0.163    -0.152  0.9875  0.1195  0.1027
              Bcc     0.0020     1.085     0.387     0.362 -0.0694 -0.2556  0.9643
 
              Baa    -0.0013    -0.670    -0.239    -0.223 -0.5933  0.4688  0.6543
    27 H(1)   Bbb    -0.0008    -0.427    -0.152    -0.142  0.6238  0.7815  0.0057
              Bcc     0.0021     1.096     0.391     0.366  0.5087 -0.4116  0.7562
 
              Baa    -0.0022    -1.162    -0.415    -0.388 -0.2228 -0.5437  0.8092
    28 H(1)   Bbb    -0.0018    -0.987    -0.352    -0.329  0.7212 -0.6504 -0.2384
              Bcc     0.0040     2.148     0.767     0.717  0.6559  0.5305  0.5371
 
              Baa    -0.0014    -0.733    -0.262    -0.245  0.4819 -0.5251  0.7014
    29 H(1)   Bbb    -0.0013    -0.703    -0.251    -0.234 -0.4442  0.5435  0.7122
              Bcc     0.0027     1.436     0.512     0.479  0.7552  0.6548 -0.0287
 
              Baa    -0.0022    -1.162    -0.415    -0.388 -0.2228 -0.5437  0.8092
    30 H(1)   Bbb    -0.0018    -0.987    -0.352    -0.329  0.7212 -0.6504 -0.2384
              Bcc     0.0040     2.148     0.767     0.717  0.6559  0.5305  0.5371
 
              Baa    -0.0014    -0.733    -0.262    -0.245  0.4819 -0.5251  0.7014
    31 H(1)   Bbb    -0.0013    -0.703    -0.251    -0.234 -0.4442  0.5435  0.7122
              Bcc     0.0027     1.436     0.512     0.479  0.7552  0.6548 -0.0287
 
              Baa    -0.0012    -0.631    -0.225    -0.211  0.5861  0.6803 -0.4401
    32 H(1)   Bbb    -0.0009    -0.455    -0.162    -0.152 -0.2932  0.6844  0.6675
              Bcc     0.0020     1.086     0.388     0.362  0.7553 -0.2622  0.6006
 
              Baa    -0.0013    -0.671    -0.239    -0.224 -0.1450  0.9326 -0.3305
    33 H(1)   Bbb    -0.0008    -0.427    -0.152    -0.142  0.7770 -0.0995 -0.6216
              Bcc     0.0021     1.098     0.392     0.366  0.6126  0.3469  0.7102
 
              Baa    -0.0012    -0.631    -0.225    -0.211  0.5861  0.6803 -0.4401
    34 H(1)   Bbb    -0.0009    -0.455    -0.162    -0.152 -0.2932  0.6844  0.6675
              Bcc     0.0020     1.086     0.388     0.362  0.7553 -0.2622  0.6006
 
              Baa    -0.0013    -0.671    -0.239    -0.224 -0.1450  0.9326 -0.3305
    35 H(1)   Bbb    -0.0008    -0.427    -0.152    -0.142  0.7770 -0.0995 -0.6216
              Bcc     0.0021     1.098     0.392     0.366  0.6126  0.3469  0.7102
 
              Baa    -0.0014    -0.730    -0.261    -0.244  0.6770  0.4217  0.6032
    36 H(1)   Bbb    -0.0013    -0.700    -0.250    -0.233 -0.0924  0.8618 -0.4988
              Bcc     0.0027     1.430     0.510     0.477  0.7302 -0.2819 -0.6224
 
              Baa    -0.0022    -1.161    -0.414    -0.387  0.9335 -0.1935  0.3018
    37 H(1)   Bbb    -0.0018    -0.986    -0.352    -0.329  0.2052  0.9787 -0.0072
              Bcc     0.0040     2.146     0.766     0.716 -0.2940  0.0687  0.9533
 
              Baa    -0.0014    -0.730    -0.261    -0.244  0.6770  0.4217  0.6032
    38 H(1)   Bbb    -0.0013    -0.700    -0.250    -0.233 -0.0924  0.8618 -0.4988
              Bcc     0.0027     1.430     0.510     0.477  0.7302 -0.2819 -0.6224
 
              Baa    -0.0022    -1.161    -0.414    -0.387  0.9335 -0.1935  0.3018
    39 H(1)   Bbb    -0.0018    -0.986    -0.352    -0.329  0.2052  0.9787 -0.0072
              Bcc     0.0040     2.146     0.766     0.716 -0.2940  0.0687  0.9533
 
              Baa    -0.0012    -0.628    -0.224    -0.209  0.9315 -0.2817 -0.2301
    40 H(1)   Bbb    -0.0008    -0.452    -0.161    -0.151  0.1000  0.8065 -0.5827
              Bcc     0.0020     1.080     0.386     0.360  0.3498  0.5198  0.7794
 
              Baa    -0.0013    -0.673    -0.240    -0.225  0.8846  0.4664  0.0014
    41 H(1)   Bbb    -0.0008    -0.430    -0.153    -0.143 -0.4650  0.8821 -0.0747
              Bcc     0.0021     1.103     0.394     0.368 -0.0361  0.0654  0.9972
 
              Baa    -0.0012    -0.628    -0.224    -0.209  0.9315 -0.2817 -0.2301
    42 H(1)   Bbb    -0.0008    -0.452    -0.161    -0.151  0.1000  0.8065 -0.5827
              Bcc     0.0020     1.080     0.386     0.360  0.3498  0.5198  0.7794
 
              Baa    -0.0013    -0.673    -0.240    -0.225  0.8846  0.4664  0.0014
    43 H(1)   Bbb    -0.0008    -0.430    -0.153    -0.143 -0.4650  0.8821 -0.0747
              Bcc     0.0021     1.103     0.394     0.368 -0.0361  0.0654  0.9972
 

 ---------------------------------------------------------------------------------

 No NMR shielding tensors so no spin-rotation constants.
 Leave Link  601 at Tue Jul 26 23:32:13 2016, MaxMem= 6442450944 cpu:       9.5
 (Enter /opt/gaussian/g09-b01/g09/l9999.exe)
 1\1\GINC-MRCD03\FOpt\UB3LYP\6-31+G(d)\C12H24Li1O6(2)\SDALE\26-Jul-2016
 \0\\#p b3lyp 6-31+G* opt\\title\\0,2\Li,3.942,6.198,11.773\O,4.9596740
 501,7.7088245914,12.8474501395\O,2.9243259499,4.6871754086,10.69854986
 05\O,3.0958497749,5.8791289641,13.6714582756\O,4.7881502251,6.51687103
 59,9.8745417244\O,5.4764109418,5.0264536531,12.6204757859\O,2.40758905
 82,7.3695463469,10.9255242141\C,4.4121646798,7.8959862396,14.162463084
 7\C,3.4718353202,4.5000137604,9.3835369153\C,3.0519396605,7.1989592497
 ,14.2323310407\C,4.8320603395,5.1970407503,9.3136689593\C,3.8120742754
 ,4.8879957581,14.4256404303\C,4.0719257246,7.5080042419,9.1203595697\C
 ,4.753347388,4.1356876161,13.4818365268\C,3.130652612,8.2603123839,10.
 0641634732\C,6.493636551,5.8286614441,13.2418334688\C,1.390363449,6.56
 73385559,10.3041665312\C,6.3268530166,7.27893576,12.7836024748\C,1.557
 1469834,5.11706424,10.7623975252\H,4.2857111407,8.9711929889,14.352498
 9049\H,5.1030879861,7.5065278166,14.9191952938\H,3.5982888593,3.424807
 0111,9.1935010951\H,2.7809120139,4.8894721834,8.6268047062\H,2.6897061
 66,7.1733682138,15.2695449531\H,2.3197207982,7.7335966177,13.621984053
 8\H,5.194293834,5.2226317862,8.2764550469\H,5.5642792018,4.6624033823,
 9.9240159462\H,4.3600523764,5.3610739161,15.2486502216\H,3.0950790561,
 4.1827340185,14.8692401684\H,3.5239476236,7.0349260839,8.2973497784\H,
 4.7889209439,8.2132659815,8.6767598316\H,5.4415525832,3.5006432792,14.
 0570041054\H,4.1805027644,3.4995525246,12.8022261566\H,2.4424474168,8.
 8953567208,9.4889958946\H,3.7034972356,8.8964474754,10.7437738434\H,7.
 4828013288,5.457794886,12.9382045921\H,6.4296341004,5.7417384383,14.33
 26052995\H,0.4011986712,6.938205114,10.6077954079\H,1.4543658996,6.654
 2615617,9.2133947005\H,6.9749731219,7.9408739517,13.3748945435\H,6.598
 7820845,7.3784224922,11.7297643451\H,0.9090268781,4.4551260483,10.1711
 054565\H,1.2852179155,5.0175775078,11.8162356549\\Version=EM64L-G09Rev
 B.01\State=2-AG\HF=-930.53553\S2=0.750028\S2-1=0.\S2A=0.75\RMSD=7.168e
 -10\RMSF=2.414e-05\Dipole=0.,0.,0.\Quadrupole=-1.7103291,-3.4377352,5.
 1480643,0.0243878,3.8256689,0.0415857\PG=CI [O(Li1),X(C12H24O6)]\\@


 TELEVISION IS CALLED A MEDIUM BECAUSE IT ISN'T
 RARE, AND IT ISN'T WELL DONE.
 Job cpu time:  0 days  9 hours  2 minutes 10.2 seconds.
 File lengths (MBytes):  RWF=    196 Int=      0 D2E=      0 Chk=     20 Scr=      1
 Normal termination of Gaussian 09 at Tue Jul 26 23:32:13 2016.
